opt                                                                     
FOpt      RB3LYP                                                      6-311+G(d,p)        
Number of atoms                            I                9
Charge                                     I                0
Multiplicity                               I                1
Number of electrons                        I               50
Number of alpha electrons                  I               25
Number of beta electrons                   I               25
Number of basis functions                  I              142
Number of independant functions            I              142
Number of point charges in /Mol/           I                0
Number of translation vectors              I                0
Info1-9                                    I   N=           9
          41          40           0           0           0         111
           2          18        -501
Num ILSW                                   I              100
ILSW                                       I   N=         100
           0           0           0           0           2           0
           0           0           0           0         402      200000
           0           0           0           0           0           0
           0      800000           0           0           1           0
           1           1           0           0     1000000           0
           0           0           0           0          -1           0
           0           0           0           0           0           0
           0           0           0           1           0           0
           0           0           1      720000      810000           0
           0           0           0           0           0           0
           0           0           0           0           0           0
           0           0           0           0           0           0
           0           0           0           0           0           0
           0           0           0           0           0           0
           0           0           0           0           0           0
           0           0           0           0           0           0
           0           0           0           0
Number of contracted shells                I               53
Highest angular momentum                   I                2
Largest degree of contraction              I                6
Number of primitive shells                 I              100
Pure/Cartesian d shells                    I                0
Pure/Cartesian f shells                    I                0
Virial Ratio                               R      2.002408027154329E+00
SCF Energy                                 R     -5.931311727510147E+02
Total Energy                               R     -5.931311727510147E+02
RMS Force                                  R      3.297793172831015E-06
RMS Density                                R      6.262735181005949E-09
Atomic numbers                             I   N=           9
           8          14           8           8           8           1
           1           1           1
Nuclear charges                            R   N=           9
  8.00000000E+00  1.40000000E+01  8.00000000E+00  8.00000000E+00  8.00000000E+00
  1.00000000E+00  1.00000000E+00  1.00000000E+00  1.00000000E+00
Current cartesian coordinates              R   N=          27
 -1.22166133E-01 -7.76846132E-02  2.18269387E-02  2.73897634E-04 -7.83119835E-04
  3.12916345E+00  2.85013528E+00  7.51246138E-02  4.37365470E+00 -1.32111802E+00
 -2.63535370E+00  4.12342635E+00 -1.40571530E+00  2.63466892E+00  3.99680164E+00
 -2.75049837E+00 -3.28207067E+00  3.21191373E+00  7.00973573E-02  1.48008009E+00
 -8.88472666E-01 -1.07582390E+00  3.28402757E+00  5.65864900E+00  3.76723726E+00
 -1.48292907E+00  4.52735777E+00
Int Atom Types                             I   N=           9
           0           0           0           0           0           0
           0           0           0
Force Field                                I                0
MM charges                                 R   N=           9
  0.00000000E+00  0.00000000E+00  0.00000000E+00  0.00000000E+00  0.00000000E+00
  0.00000000E+00  0.00000000E+00  0.00000000E+00  0.00000000E+00
Integer atomic weights                     I   N=           9
          16          28          16          16          16           1
           1           1           1
Real atomic weights                        R   N=           9
  1.59949146E+01  2.79769284E+01  1.59949146E+01  1.59949146E+01  1.59949146E+01
  1.00782504E+00  1.00782504E+00  1.00782504E+00  1.00782504E+00
Atom residue info                          I   N=           9
           0           0           0           0           0           0
           0           0           0
Atom fragment info                         I   N=           9
           0           0           0           0           0           0
           0           0           0
Atom residue num                           I   N=           9
           0           0           0           0           0           0
           0           0           0
Nuclear spins                              I   N=           9
           0           0           0           0           0           1
           1           1           1
Nuclear ZEff                               R   N=           9
 -5.60000000E+00 -1.22500000E+01 -5.60000000E+00 -5.60000000E+00 -5.60000000E+00
 -1.00000000E+00 -1.00000000E+00 -1.00000000E+00 -1.00000000E+00
Nuclear QMom                               R   N=           9
  0.00000000E+00  0.00000000E+00  0.00000000E+00  0.00000000E+00  0.00000000E+00
  0.00000000E+00  0.00000000E+00  0.00000000E+00  0.00000000E+00
Nuclear GFac                               R   N=           9
  0.00000000E+00  0.00000000E+00  0.00000000E+00  0.00000000E+00  0.00000000E+00
  2.79284600E+00  2.79284600E+00  2.79284600E+00  2.79284600E+00
MicOpt                                     I   N=           9
          -1          -1          -1          -1          -1          -1
          -1          -1          -1
Constraint Structure                       R   N=          27
  0.00000000E+00  0.00000000E+00  0.00000000E+00  0.00000000E+00  0.00000000E+00
  3.12570340E+00  2.91650105E+00  0.00000000E+00  4.25021036E+00 -1.45731196E+00
 -2.57711252E+00  4.12738826E+00 -1.45823560E+00  2.57731632E+00  4.12581920E+00
 -2.77942462E+00 -3.35483762E+00  3.26812102E+00  8.01675609E-02  1.45698807E+00
 -9.80905997E-01 -1.13599800E+00  3.35079319E+00  5.67147815E+00  3.84672365E+00
 -1.45806743E+00  4.56650650E+00
ONIOM Charges                              I   N=          16
           0           0           0           0           0           0
           0           0           0           0           0           0
           0           0           0           0
ONIOM Multiplicities                       I   N=          16
           1           0           0           0           0           0
           0           0           0           0           0           0
           0           0           0           0
Atom Layers                                I   N=           9
           1           1           1           1           1           1
           1           1           1
Atom Modifiers                             I   N=           9
           0           0           0           0           0           0
           0           0           0
Int Atom Modified Types                    I   N=           9
           0           0           0           0           0           0
           0           0           0
Link Atoms                                 I   N=           9
           0           0           0           0           0           0
           0           0           0
Atom Modified MM Charges                   R   N=           9
  0.00000000E+00  0.00000000E+00  0.00000000E+00  0.00000000E+00  0.00000000E+00
  0.00000000E+00  0.00000000E+00  0.00000000E+00  0.00000000E+00
Link Distances                             R   N=          36
  0.00000000E+00  0.00000000E+00  0.00000000E+00  0.00000000E+00  0.00000000E+00
  0.00000000E+00  0.00000000E+00  0.00000000E+00  0.00000000E+00  0.00000000E+00
  0.00000000E+00  0.00000000E+00  0.00000000E+00  0.00000000E+00  0.00000000E+00
  0.00000000E+00  0.00000000E+00  0.00000000E+00  0.00000000E+00  0.00000000E+00
  0.00000000E+00  0.00000000E+00  0.00000000E+00  0.00000000E+00  0.00000000E+00
  0.00000000E+00  0.00000000E+00  0.00000000E+00  0.00000000E+00  0.00000000E+00
  0.00000000E+00  0.00000000E+00  0.00000000E+00  0.00000000E+00  0.00000000E+00
  0.00000000E+00
MxBond                                     I                4
NBond                                      I   N=           9
           2           4           2           2           2           1
           1           1           1
IBond                                      I   N=          36
           2           7           0           0           1           3
           4           5           2           9           0           0
           2           6           0           0           2           8
           0           0           4           0           0           0
           1           0           0           0           5           0
           0           0           3           0           0           0
RBond                                      R   N=          36
  1.00000000E+00  1.00000000E+00  0.00000000E+00  0.00000000E+00  1.00000000E+00
  1.00000000E+00  1.00000000E+00  1.00000000E+00  1.00000000E+00  1.00000000E+00
  0.00000000E+00  0.00000000E+00  1.00000000E+00  1.00000000E+00  0.00000000E+00
  0.00000000E+00  1.00000000E+00  1.00000000E+00  0.00000000E+00  0.00000000E+00
  1.00000000E+00  0.00000000E+00  0.00000000E+00  0.00000000E+00  1.00000000E+00
  0.00000000E+00  0.00000000E+00  0.00000000E+00  1.00000000E+00  0.00000000E+00
  0.00000000E+00  0.00000000E+00  1.00000000E+00  0.00000000E+00  0.00000000E+00
  0.00000000E+00
Shell types                                I   N=          53
           0          -1          -1          -1          -1          -2
           0           0           0           0           0           0
           1           1           1           1           1          -1
          -2           0          -1          -1          -1          -1
          -2           0          -1          -1          -1          -1
          -2           0          -1          -1          -1          -1
          -2           0           0           0           1           0
           0           0           1           0           0           0
           1           0           0           0           1
Number of primitives per shell             I   N=          53
           6           3           1           1           1           1
           6           3           1           1           1           1
           4           2           1           1           1           1
           1           6           3           1           1           1
           1           6           3           1           1           1
           1           6           3           1           1           1
           1           3           1           1           1           3
           1           1           1           3           1           1
           1           3           1           1           1
Shell to atom map                          I   N=          53
           1           1           1           1           1           1
           2           2           2           2           2           2
           2           2           2           2           2           2
           2           3           3           3           3           3
           3           4           4           4           4           4
           4           5           5           5           5           5
           5           6           6           6           6           7
           7           7           7           8           8           8
           8           9           9           9           9
Primitive exponents                        R   N=         100
  8.58850000E+03  1.29723000E+03  2.99296000E+02  8.73771000E+01  2.56789000E+01
  3.74004000E+00  4.21175000E+01  9.62837000E+00  2.85332000E+00  9.05661000E-01
  2.55611000E-01  8.45000000E-02  1.29200000E+00  6.93792300E+04  1.03549400E+04
  2.33387960E+03  6.57142950E+02  2.14301130E+02  7.76291680E+01  7.76291680E+01
  3.06308070E+01  1.28012950E+01  3.92686600E+00  1.45234300E+00  2.56234000E-01
  9.42790000E-02  3.35483190E+02  7.89003660E+01  2.49881500E+01  9.21971100E+00
  3.62114000E+00  1.45131000E+00  5.04977000E-01  1.86317000E-01  6.54320000E-02
  3.31000000E-02  4.50000000E-01  8.58850000E+03  1.29723000E+03  2.99296000E+02
  8.73771000E+01  2.56789000E+01  3.74004000E+00  4.21175000E+01  9.62837000E+00
  2.85332000E+00  9.05661000E-01  2.55611000E-01  8.45000000E-02  1.29200000E+00
  8.58850000E+03  1.29723000E+03  2.99296000E+02  8.73771000E+01  2.56789000E+01
  3.74004000E+00  4.21175000E+01  9.62837000E+00  2.85332000E+00  9.05661000E-01
  2.55611000E-01  8.45000000E-02  1.29200000E+00  8.58850000E+03  1.29723000E+03
  2.99296000E+02  8.73771000E+01  2.56789000E+01  3.74004000E+00  4.21175000E+01
  9.62837000E+00  2.85332000E+00  9.05661000E-01  2.55611000E-01  8.45000000E-02
  1.29200000E+00  3.38650000E+01  5.09479000E+00  1.15879000E+00  3.25840000E-01
  1.02741000E-01  7.50000000E-01  3.38650000E+01  5.09479000E+00  1.15879000E+00
  3.25840000E-01  1.02741000E-01  7.50000000E-01  3.38650000E+01  5.09479000E+00
  1.15879000E+00  3.25840000E-01  1.02741000E-01  7.50000000E-01  3.38650000E+01
  5.09479000E+00  1.15879000E+00  3.25840000E-01  1.02741000E-01  7.50000000E-01
Contraction coefficients                   R   N=         100
  1.89515008E-03  1.43859006E-02  7.07320031E-02  2.40001011E-01  5.94797026E-01
  2.80802012E-01  1.13889012E-01  9.20811101E-01 -3.27447036E-03  1.00000000E+00
  1.00000000E+00  1.00000000E+00  1.00000000E+00  7.57000408E-04  5.93200320E-03
  3.10880168E-02  1.24967067E-01  3.86897209E-01  5.54888299E-01  1.77880945E-01
  6.27764806E-01  2.47622924E-01  1.00000000E+00  1.00000000E+00  1.00000000E+00
  1.00000000E+00  8.86599815E-03  6.82989857E-02  2.90957939E-01  7.32116847E-01
  6.19879440E-01  4.39148312E-01  1.00000000E+00  1.00000000E+00  1.00000000E+00
  1.00000000E+00  1.00000000E+00  1.89515008E-03  1.43859006E-02  7.07320031E-02
  2.40001011E-01  5.94797026E-01  2.80802012E-01  1.13889012E-01  9.20811101E-01
 -3.27447036E-03  1.00000000E+00  1.00000000E+00  1.00000000E+00  1.00000000E+00
  1.89515008E-03  1.43859006E-02  7.07320031E-02  2.40001011E-01  5.94797026E-01
  2.80802012E-01  1.13889012E-01  9.20811101E-01 -3.27447036E-03  1.00000000E+00
  1.00000000E+00  1.00000000E+00  1.00000000E+00  1.89515008E-03  1.43859006E-02
  7.07320031E-02  2.40001011E-01  5.94797026E-01  2.80802012E-01  1.13889012E-01
  9.20811101E-01 -3.27447036E-03  1.00000000E+00  1.00000000E+00  1.00000000E+00
  1.00000000E+00  2.54938145E-02  1.90373109E-01  8.52161486E-01  1.00000000E+00
  1.00000000E+00  1.00000000E+00  2.54938145E-02  1.90373109E-01  8.52161486E-01
  1.00000000E+00  1.00000000E+00  1.00000000E+00  2.54938145E-02  1.90373109E-01
  8.52161486E-01  1.00000000E+00  1.00000000E+00  1.00000000E+00  2.54938145E-02
  1.90373109E-01  8.52161486E-01  1.00000000E+00  1.00000000E+00  1.00000000E+00
P(S=P) Contraction coefficients            R   N=         100
  0.00000000E+00  0.00000000E+00  0.00000000E+00  0.00000000E+00  0.00000000E+00
  0.00000000E+00  3.65113974E-02  2.37152983E-01  8.19701941E-01  1.00000000E+00
  1.00000000E+00  1.00000000E+00  0.00000000E+00  0.00000000E+00  0.00000000E+00
  0.00000000E+00  0.00000000E+00  0.00000000E+00  0.00000000E+00  0.00000000E+00
  0.00000000E+00  0.00000000E+00  0.00000000E+00  0.00000000E+00  0.00000000E+00
  0.00000000E+00  0.00000000E+00  0.00000000E+00  0.00000000E+00  0.00000000E+00
  0.00000000E+00  0.00000000E+00  0.00000000E+00  0.00000000E+00  0.00000000E+00
  1.00000000E+00  0.00000000E+00  0.00000000E+00  0.00000000E+00  0.00000000E+00
  0.00000000E+00  0.00000000E+00  0.00000000E+00  3.65113974E-02  2.37152983E-01
  8.19701941E-01  1.00000000E+00  1.00000000E+00  1.00000000E+00  0.00000000E+00
  0.00000000E+00  0.00000000E+00  0.00000000E+00  0.00000000E+00  0.00000000E+00
  0.00000000E+00  3.65113974E-02  2.37152983E-01  8.19701941E-01  1.00000000E+00
  1.00000000E+00  1.00000000E+00  0.00000000E+00  0.00000000E+00  0.00000000E+00
  0.00000000E+00  0.00000000E+00  0.00000000E+00  0.00000000E+00  3.65113974E-02
  2.37152983E-01  8.19701941E-01  1.00000000E+00  1.00000000E+00  1.00000000E+00
  0.00000000E+00  0.00000000E+00  0.00000000E+00  0.00000000E+00  0.00000000E+00
  0.00000000E+00  0.00000000E+00  0.00000000E+00  0.00000000E+00  0.00000000E+00
  0.00000000E+00  0.00000000E+00  0.00000000E+00  0.00000000E+00  0.00000000E+00
  0.00000000E+00  0.00000000E+00  0.00000000E+00  0.00000000E+00  0.00000000E+00
  0.00000000E+00  0.00000000E+00  0.00000000E+00  0.00000000E+00  0.00000000E+00
Coordinates of each shell                  R   N=         159
 -1.22166133E-01 -7.76846132E-02  2.18269387E-02 -1.22166133E-01 -7.76846132E-02
  2.18269387E-02 -1.22166133E-01 -7.76846132E-02  2.18269387E-02 -1.22166133E-01
 -7.76846132E-02  2.18269387E-02 -1.22166133E-01 -7.76846132E-02  2.18269387E-02
 -1.22166133E-01 -7.76846132E-02  2.18269387E-02  2.73897634E-04 -7.83119835E-04
  3.12916345E+00  2.73897634E-04 -7.83119835E-04  3.12916345E+00  2.73897634E-04
 -7.83119835E-04  3.12916345E+00  2.73897634E-04 -7.83119835E-04  3.12916345E+00
  2.73897634E-04 -7.83119835E-04  3.12916345E+00  2.73897634E-04 -7.83119835E-04
  3.12916345E+00  2.73897634E-04 -7.83119835E-04  3.12916345E+00  2.73897634E-04
 -7.83119835E-04  3.12916345E+00  2.73897634E-04 -7.83119835E-04  3.12916345E+00
  2.73897634E-04 -7.83119835E-04  3.12916345E+00  2.73897634E-04 -7.83119835E-04
  3.12916345E+00  2.73897634E-04 -7.83119835E-04  3.12916345E+00  2.73897634E-04
 -7.83119835E-04  3.12916345E+00  2.85013528E+00  7.51246138E-02  4.37365470E+00
  2.85013528E+00  7.51246138E-02  4.37365470E+00  2.85013528E+00  7.51246138E-02
  4.37365470E+00  2.85013528E+00  7.51246138E-02  4.37365470E+00  2.85013528E+00
  7.51246138E-02  4.37365470E+00  2.85013528E+00  7.51246138E-02  4.37365470E+00
 -1.32111802E+00 -2.63535370E+00  4.12342635E+00 -1.32111802E+00 -2.63535370E+00
  4.12342635E+00 -1.32111802E+00 -2.63535370E+00  4.12342635E+00 -1.32111802E+00
 -2.63535370E+00  4.12342635E+00 -1.32111802E+00 -2.63535370E+00  4.12342635E+00
 -1.32111802E+00 -2.63535370E+00  4.12342635E+00 -1.40571530E+00  2.63466892E+00
  3.99680164E+00 -1.40571530E+00  2.63466892E+00  3.99680164E+00 -1.40571530E+00
  2.63466892E+00  3.99680164E+00 -1.40571530E+00  2.63466892E+00  3.99680164E+00
 -1.40571530E+00  2.63466892E+00  3.99680164E+00 -1.40571530E+00  2.63466892E+00
  3.99680164E+00 -2.75049837E+00 -3.28207067E+00  3.21191373E+00 -2.75049837E+00
 -3.28207067E+00  3.21191373E+00 -2.75049837E+00 -3.28207067E+00  3.21191373E+00
 -2.75049837E+00 -3.28207067E+00  3.21191373E+00  7.00973573E-02  1.48008009E+00
 -8.88472666E-01  7.00973573E-02  1.48008009E+00 -8.88472666E-01  7.00973573E-02
  1.48008009E+00 -8.88472666E-01  7.00973573E-02  1.48008009E+00 -8.88472666E-01
 -1.07582390E+00  3.28402757E+00  5.65864900E+00 -1.07582390E+00  3.28402757E+00
  5.65864900E+00 -1.07582390E+00  3.28402757E+00  5.65864900E+00 -1.07582390E+00
  3.28402757E+00  5.65864900E+00  3.76723726E+00 -1.48292907E+00  4.52735777E+00
  3.76723726E+00 -1.48292907E+00  4.52735777E+00  3.76723726E+00 -1.48292907E+00
  4.52735777E+00  3.76723726E+00 -1.48292907E+00  4.52735777E+00
Alpha Orbital Energies                     R   N=         142
 -6.61755986E+01 -1.91343051E+01 -1.91342822E+01 -1.91342749E+01 -1.91342672E+01
 -5.34004671E+00 -3.69903756E+00 -3.69903336E+00 -3.69896931E+00 -1.04801392E+00
 -1.01121389E+00 -1.01120318E+00 -1.00605162E+00 -6.04058311E-01 -5.40882960E-01
 -5.40823202E-01 -5.31369688E-01 -4.08335210E-01 -3.84666612E-01 -3.82580315E-01
 -3.82498058E-01 -3.61021056E-01 -3.58433777E-01 -3.28851484E-01 -3.28705758E-01
 -2.64314225E-02  1.58524025E-02  1.59068562E-02  1.85536068E-02  9.88502636E-02
  9.89015535E-02  9.97670197E-02  1.27790826E-01  1.42940526E-01  1.43081070E-01
  1.45198006E-01  1.53347735E-01  1.54172545E-01  1.75041020E-01  1.81466874E-01
  1.97155740E-01  1.97323439E-01  2.18786543E-01  2.37274993E-01  2.37322712E-01
  2.66616498E-01  2.66827005E-01  2.70915624E-01  2.76412651E-01  3.10609137E-01
  3.28268515E-01  3.35633741E-01  3.35694812E-01  3.51195115E-01  3.92796743E-01
  3.93401285E-01  4.73963217E-01  5.23050484E-01  5.40278766E-01  5.40454321E-01
  6.14350021E-01  6.50911665E-01  6.63000252E-01  9.04759802E-01  9.04895169E-01
  9.09993086E-01  1.01305360E+00  1.01328839E+00  1.03157689E+00  1.05058065E+00
  1.06769572E+00  1.06770986E+00  1.07618636E+00  1.11785175E+00  1.11974807E+00
  1.12238618E+00  1.12642640E+00  1.12662384E+00  1.26224658E+00  1.29008320E+00
  1.29045608E+00  1.37853672E+00  1.37882137E+00  1.38952155E+00  1.39432914E+00
  1.46473020E+00  1.47952881E+00  1.55007342E+00  1.55060403E+00  1.70937063E+00
  1.75183954E+00  1.76052120E+00  1.76088360E+00  2.03101785E+00  2.03268539E+00
  2.03299296E+00  2.07269686E+00  2.48021767E+00  2.49510544E+00  2.51058514E+00
  2.51084775E+00  2.81607568E+00  2.81667511E+00  2.93688873E+00  2.95221475E+00
  2.95593543E+00  3.06354319E+00  3.06376371E+00  3.08809183E+00  3.10250274E+00
  3.11493980E+00  3.11499546E+00  3.12036220E+00  3.14818948E+00  3.39214303E+00
  3.39230597E+00  3.39446451E+00  3.74956057E+00  3.83228575E+00  3.83247928E+00
  3.86700905E+00  4.91184795E+00  4.94621924E+00  4.97134441E+00  4.97757656E+00
  4.97778913E+00  5.05713450E+00  5.06672195E+00  5.06698351E+00  5.45386139E+00
  5.49834097E+00  5.50637398E+00  5.50652687E+00  5.90104687E+00  1.14170220E+01
  1.14684901E+01  1.14686219E+01  4.98824848E+01  4.98956281E+01  4.98958878E+01
  4.99023492E+01  1.41264135E+02
Alpha MO coefficients                      R   N=       20164
  1.33888060E-06 -3.20782509E-06  2.01223764E-06  3.62557824E-06  2.68750477E-05
  8.54366458E-05 -6.79638144E-06 -1.74593980E-05 -5.28293976E-05 -3.54363499E-04
 -7.40583813E-06 -8.86974801E-05 -1.70231996E-04  1.44408444E-03  3.95194461E-05
  2.22015596E-04  4.38190899E-04 -7.73759337E-05 -3.12675633E-06  4.66951948E-06
  1.88214149E-05 -5.23550726E-06  4.17590163E-01  6.46758918E-01  1.41543357E-02
 -5.18056819E-03  3.33562387E-03 -5.43726361E-03 -3.60806872E-08  1.36638689E-08
  3.56272960E-08  9.34997438E-09 -6.45896454E-10  1.82691545E-09 -1.23428587E-08
 -2.10308784E-08 -1.62178167E-08  2.65929586E-08  7.08874447E-08 -7.75265036E-08
 -1.16101535E-06 -1.08166396E-07  8.09625418E-07 -2.74075454E-04  9.29364673E-08
 -2.28923980E-08 -1.44039302E-07  5.27103548E-07  2.05744580E-05  7.72398587E-09
 -1.51241285E-05  2.68461321E-08  1.33864672E-06 -3.20697357E-06 -2.43028651E-05
 -3.61892467E-06 -1.16497940E-05  8.54214958E-05  4.67521479E-05  1.74477609E-05
  2.55394663E-05 -3.54224512E-04  1.55943061E-04  8.85041271E-05  6.87446466E-05
  1.44390121E-03 -3.94050574E-04 -2.21582342E-04 -1.95989878E-04  3.56226684E-05
 -5.41048248E-05 -3.12091414E-06 -4.64256101E-05  6.27119602E-06  1.33776956E-06
 -3.20186117E-06  9.12293674E-06  2.33140814E-05 -1.06137456E-05  8.54122119E-05
 -1.02031552E-05 -4.74142706E-05  2.81104072E-05 -3.54302598E-04 -2.45244144E-05
 -1.44573622E-04  1.24138192E-04  1.44310684E-03  5.29018270E-05  3.83496312E-04
 -3.04713300E-04  2.56743686E-05  1.22955463E-06  3.86696795E-05  2.88089041E-05
 -5.84515542E-05  1.33663101E-06 -3.19498916E-06  1.31990584E-05 -2.33226499E-05
 -4.63024582E-06  8.53561430E-05 -2.98905445E-05  4.74306590E-05 -7.16363113E-07
 -3.54029921E-04 -1.24508294E-04  1.44570491E-04 -2.21564717E-05  1.44258605E-03
  3.03006003E-04 -3.83327002E-04  6.15583738E-05  1.47240014E-05  6.17240380E-06
 -4.03708001E-05  3.52416747E-05  5.72478977E-05 -8.06358062E-06  1.37684249E-04
 -3.32076167E-04  4.41327370E-05  5.75730709E-05 -6.04110588E-06 -8.07269014E-06
  1.37773089E-04 -3.32459076E-04 -5.01309990E-07 -1.98616509E-05  7.00089736E-05
 -8.06391876E-06  1.37314908E-04 -3.31556076E-04  2.16709275E-05 -5.75863710E-05
 -3.87785024E-05 -8.06445460E-06  1.37553294E-04 -3.31951295E-04 -6.53613884E-05
  1.98444402E-05 -2.50191522E-05 -2.43681276E-02 -2.07596157E-02 -3.30182262E-05
 -3.75622656E-05 -3.20968010E-05 -6.37488802E-04  1.06698044E-04 -2.87975029E-05
  7.34382927E-05  8.73367540E-04 -4.49206077E-04  1.62049463E-05  2.22322752E-05
 -6.21798860E-03  5.61434510E-04 -1.58995579E-03 -9.90628536E-04  2.21846940E-05
 -4.65325715E-05  1.22729090E-05  1.66767430E-06 -1.97012045E-05  8.13630798E-07
 -8.45264839E-07  2.87699327E-05 -1.53459058E-04  6.47687289E-06  4.72448460E-03
 -8.20173763E-06 -1.06122972E-06 -4.10700730E-06  4.56454229E-06  5.37268421E-06
  4.66987786E-06  8.00852830E-05 -2.59582183E-05 -4.52330392E-06  1.80573776E-03
  9.45784190E-05  9.82812835E-04 -6.61972731E-03  1.48618095E-03 -2.63684489E-03
 -7.52600044E-04  3.89984650E-04 -2.03018018E-04  2.02615166E-04 -1.92091394E-04
  3.42909122E-04 -1.45901403E-05  3.50902513E-04  1.53026241E-05  5.50265356E-01
  4.68822253E-01 -2.72319074E-04 -9.65697184E-04 -2.73833413E-04  1.36697872E-02
  6.62397201E-05 -1.57939595E-04  4.93775338E-06 -9.71033640E-03  1.97758341E-03
 -1.28646474E-04  8.16703542E-04  1.23832160E-02 -2.45446215E-03 -1.24347597E-03
 -1.31977038E-03 -1.05647889E-04 -4.82908724E-05 -4.92873239E-05 -1.90282467E-04
 -2.43046417E-04 -1.24820124E-02 -1.06378128E-02  7.84669958E-06 -8.00400209E-06
  1.50582547E-05 -2.96898186E-04  3.50888246E-05  5.78135436E-06  1.90317483E-05
  4.22083794E-04 -5.66734767E-04 -1.30205033E-04 -2.71096613E-04 -2.18608450E-03
 -1.34698690E-04 -1.36643688E-03  4.18584755E-04  1.70313671E-05  1.67670013E-05
 -1.57395206E-05 -1.37662639E-05 -1.58292048E-05 -2.03627832E-02 -1.73531478E-02
 -3.13808632E-05  1.17856762E-05 -3.91430773E-05 -4.47770522E-04  5.11581279E-05
  3.05217494E-06  4.37880388E-05  1.48235734E-04 -3.97540016E-04 -1.00764943E-04
 -4.30141210E-04 -4.00803367E-03  3.41421417E-06  1.51440261E-03  7.22004230E-04
 -8.22600346E-06 -1.64465977E-05 -9.30972424E-06 -3.53697826E-05  2.75638695E-05
 -3.59886114E-05 -2.34541991E-04 -7.77833450E-04 -2.61850341E-05 -3.49334703E-05
 -7.02552619E-05  4.07384444E-07  1.95132229E-05  2.50096381E-03  3.49098971E-05
 -3.73849761E-05  7.52290883E-05  3.03104437E-05  2.97649483E-04 -2.02483812E-04
 -7.74467962E-05  8.68567065E-06 -5.93668294E-05 -9.11670994E-06 -3.42423625E-04
 -2.01662272E-03  3.17660267E-04 -8.51761809E-04  1.96258637E-05 -6.70799701E-02
 -5.71554709E-02 -1.82819573E-05 -1.31832294E-04 -4.27085544E-05 -1.61231731E-03
 -1.21611810E-05  5.13627667E-05  1.54073013E-05  9.93040224E-04  9.90007553E-05
 -6.06484158E-04  2.27875714E-04 -5.24308202E-03 -4.92758217E-04  4.11444571E-04
 -1.68413240E-03  1.19263316E-05  3.26522410E-05  4.42858890E-06  4.69223179E-05
  3.69236140E-06  7.34348425E-07 -7.46593633E-07  2.58637055E-05 -1.38377038E-04
  4.83711366E-06  4.27830337E-03  3.64165685E-06 -8.44830555E-06 -2.39344397E-06
 -3.61584225E-06  7.41206848E-06 -3.37172841E-06 -3.74341508E-05  3.93101138E-05
  6.50107197E-05 -6.78164012E-04  1.90650446E-03  6.31731902E-04  1.89665705E-03
 -5.92965242E-03 -4.12989933E-03 -6.79331152E-04 -1.86882718E-05  3.75608886E-04
  3.33089712E-04 -2.23477263E-04 -5.01323816E-05  2.59624348E-04 -1.76974425E-04
 -3.74458823E-04  1.60924366E-02  1.37073686E-02 -8.53447026E-06 -3.34669109E-05
 -1.10404049E-05  4.14051941E-04 -1.17346907E-05  2.83746125E-05  1.54262050E-05
 -1.18216532E-04  4.36118575E-04 -5.68664557E-04 -5.92834992E-05 -8.39116856E-04
  7.74703929E-04  9.83225926E-05  8.22236189E-04 -5.49948569E-06  1.09128878E-05
  9.00539995E-06 -3.23882746E-05  1.16996631E-05 -4.84739455E-02 -4.12973574E-02
  4.90161707E-05 -6.14588797E-05  6.16435115E-05 -1.24096082E-03 -1.24645087E-05
  1.21988500E-04  6.04401411E-05  1.32473469E-03  3.03351504E-04 -1.64289079E-04
 -3.10061665E-04 -6.50118564E-03  8.30613114E-05 -5.44577070E-04  2.00088621E-03
  2.59963955E-05 -4.40785423E-05 -2.80709171E-05  9.45998037E-06  2.53463975E-05
  5.44837364E-01  4.64197561E-01  5.98669987E-04 -3.74621837E-04  7.48373324E-04
  1.35386616E-02  5.13017445E-05  4.76642909E-05  1.62500619E-04 -9.66474775E-03
 -9.21296241E-04  1.74335914E-03  6.94232046E-04  1.25235013E-02  1.86227289E-03
 -2.51318170E-03  3.66626974E-04  2.61623217E-04  9.00533966E-05  1.34701529E-04
  1.21926175E-05  1.20163936E-04 -3.56628937E-06 -2.70548444E-06  2.55248039E-03
  5.96434054E-05  8.93783319E-05  3.76930725E-05  3.22716891E-05  3.32867580E-04
  1.45249047E-04  1.45688247E-05 -1.67937243E-04  5.77019774E-06 -4.59567901E-06
 -3.06124530E-04 -2.04522222E-03  2.64455439E-04  1.96762473E-04  8.28096197E-04
 -3.70785821E-05 -2.64121129E-04 -1.07206842E-03  2.34628134E-05 -1.18548798E-04
  4.45769223E-05  5.41479375E-01  4.61336677E-01  1.52522537E-04  9.48421168E-04
  3.46145697E-04  1.34543935E-02  2.79202133E-05  1.65877110E-04 -5.70044117E-05
 -9.56305895E-03 -8.32472555E-05 -2.87539484E-06 -2.08208584E-03  1.14211474E-02
  3.67503101E-04  1.19608868E-03  2.59987722E-03 -1.35446905E-04 -3.43744854E-05
 -2.45625655E-04 -1.62918396E-04  4.17339029E-05  8.95060295E-07 -9.29085787E-07
  3.16438331E-05 -1.68803875E-04  6.55600863E-06  5.20226855E-03  3.51956755E-07
 -9.03466296E-07  8.83149358E-06 -3.03183678E-06 -3.35380352E-06 -6.49362713E-06
  4.22738327E-05  3.29491172E-05 -6.68092805E-05 -1.29618320E-04  3.40100335E-04
 -1.94004152E-03 -6.55896375E-04 -2.71944099E-03  6.47691599E-03 -8.28279837E-04