 Entering Gaussian System, Link 0=g98
 Initial command:
 /home1/soft/g98_2/g98/l1.exe /home1/student/SN2/Gau-32150.inp -scrdir=/home1/student/SN2/
 Entering Link 1 = /home1/soft/g98_2/g98/l1.exe PID=     32151.
  
 Copyright (c) 1988,1990,1992,1993,1995,1998 Gaussian, Inc.
                  All Rights Reserved.
  
 This is part of the Gaussian(R) 98 program.  It is based on
 the Gaussian 94(TM) system (copyright 1995 Gaussian, Inc.),
 the Gaussian 92(TM) system (copyright 1992 Gaussian, Inc.),
 the Gaussian 90(TM) system (copyright 1990 Gaussian, Inc.),
 the Gaussian 88(TM) system (copyright 1988 Gaussian, Inc.),
 the Gaussian 86(TM) system (copyright 1986 Carnegie Mellon
 University), and the Gaussian 82(TM) system (copyright 1983
 Carnegie Mellon University). Gaussian is a federally registered
 trademark of Gaussian, Inc.
  
 This software contains proprietary and confidential information,
 including trade secrets, belonging to Gaussian, Inc.
  
 This software is provided under written license and may be
 used, copied, transmitted, or stored only in accord with that
 written license.
  
 The following legend is applicable only to US Government
 contracts under DFARS:
  
                    RESTRICTED RIGHTS LEGEND
  
 Use, duplication or disclosure by the US Government is subject
 to restrictions as set forth in subparagraph (c)(1)(ii) of the
 Rights in Technical Data and Computer Software clause at DFARS
 252.227-7013.
  
 Gaussian, Inc.
 Carnegie Office Park, Building 6, Pittsburgh, PA 15106 USA
  
 The following legend is applicable only to US Government
 contracts under FAR:
  
                    RESTRICTED RIGHTS LEGEND
  
 Use, reproduction and disclosure by the US Government is subject
 to restrictions as set forth in subparagraph (c) of the
 Commercial Computer Software - Restricted Rights clause at FAR
 52.227-19.
  
 Gaussian, Inc.
 Carnegie Office Park, Building 6, Pittsburgh, PA 15106 USA
  
  
 ---------------------------------------------------------------
 Warning -- This program may not be used in any manner that
 competes with the business of Gaussian, Inc. or will provide
 assistance to any competitor of Gaussian, Inc.  The licensee
 of this program is prohibited from giving any competitor of
 Gaussian, Inc. access to this program.  By using this program,
 the user acknowledges that Gaussian, Inc. is engaged in the
 business of creating and licensing software in the field of
 computational chemistry and represents and warrants to the
 licensee that it is not a competitor of Gaussian, Inc. and that
 it will not use this program in any manner prohibited above.
 ---------------------------------------------------------------
  

 Cite this work as:
 Gaussian 98, Revision A.7,
 M. J. Frisch, G. W. Trucks, H. B. Schlegel, G. E. Scuseria, 
 M. A. Robb, J. R. Cheeseman, V. G. Zakrzewski, J. A. Montgomery, Jr., 
 R. E. Stratmann, J. C. Burant, S. Dapprich, J. M. Millam, 
 A. D. Daniels, K. N. Kudin, M. C. Strain, O. Farkas, J. Tomasi, 
 V. Barone, M. Cossi, R. Cammi, B. Mennucci, C. Pomelli, C. Adamo, 
 S. Clifford, J. Ochterski, G. A. Petersson, P. Y. Ayala, Q. Cui, 
 K. Morokuma, D. K. Malick, A. D. Rabuck, K. Raghavachari, 
 J. B. Foresman, J. Cioslowski, J. V. Ortiz, A. G. Baboul, 
 B. B. Stefanov, G. Liu, A. Liashenko, P. Piskorz, I. Komaromi, 
 R. Gomperts, R. L. Martin, D. J. Fox, T. Keith, M. A. Al-Laham, 
 C. Y. Peng, A. Nanayakkara, C. Gonzalez, M. Challacombe, 
 P. M. W. Gill, B. Johnson, W. Chen, M. W. Wong, J. L. Andres, 
 C. Gonzalez, M. Head-Gordon, E. S. Replogle, and J. A. Pople, 
 Gaussian, Inc., Pittsburgh PA, 1998.

 *********************************************
 Gaussian 98:  x86-Linux-G98RevA.7 11-Apr-1999
                  25-Nov-2005 
 *********************************************
 --------------------------------------------------------
 #p b3lyp/6-311+g(d,p) opt freq gfinput iop(6/7=3) nosymm
 --------------------------------------------------------
 1/14=-1,18=20,26=3,38=1/1,3;
 2/9=110,15=1,17=6,18=5/2;
 3/5=4,6=6,7=111,11=2,24=10,25=1,30=1/1,2,3;
 4//1;
 5/5=2,38=4,42=-5/2;
 6/7=3,8=2,9=2,10=2,28=1/1;
 7/30=1/1,2,3,16;
 1/14=-1,18=20/3(1);
 99//99;
 2/9=110,15=1/2;
 3/5=4,6=6,7=111,11=2,25=1,30=1/1,2,3;
 4/5=5,16=2/1;
 5/5=2,38=4,42=-5/2;
 7/30=1/1,2,3,16;
 1/14=-1,18=20/3(-5);
 2/9=110,15=1/2;
 6/7=3,8=2,9=2,10=2,19=2,28=1/1;
 99/9=1/99;
 Leave Link    1 at Fri Nov 25 15:13:28 2005, MaxMem=          0 cpu:       0.2
 (Enter /home1/soft/g98_2/g98/l101.exe)
 ---------------------
 frequenties alles los
 ---------------------
 Symbolic Z-matrix:
 Charge =  0 Multiplicity = 1
 c
 h                    1    hc2
 h                    1    hc3      2    hch3
 h                    1    hc4      2    hch4     3    dih4     0
 cl                   1    clc5     2    clch5    3    dih5     0
       Variables:
  hc2                   1.089                    
  hc3                   1.089                    
  hch3                109.471                    
  hc4                   1.089                    
  hch4                109.471                    
  dih4                120.                       
  clc5                  1.75                     
  clch5               109.471                    
  dih5                240.                       
 Leave Link  101 at Fri Nov 25 15:13:28 2005, MaxMem=    6291456 cpu:       0.2
 (Enter /home1/soft/g98_2/g98/l103.exe)

 GradGradGradGradGradGradGradGradGradGradGradGradGradGradGradGradGradGrad
 Berny optimization.
 Initialization pass.
                         ----------------------------
                         !    Initial Parameters    !
                         ! (Angstroms and Degrees)  !
 ------------------------                            -------------------------
 ! Name  Definition              Value          Derivative Info.             !
 -----------------------------------------------------------------------------
 ! R1    R(1,2)                  1.089          estimate D2E/DX2             !
 ! R2    R(1,3)                  1.089          estimate D2E/DX2             !
 ! R3    R(1,4)                  1.089          estimate D2E/DX2             !
 ! R4    R(1,5)                  1.75           estimate D2E/DX2             !
 ! A1    A(2,1,3)              109.471          estimate D2E/DX2             !
 ! A2    A(2,1,4)              109.471          estimate D2E/DX2             !
 ! A3    A(2,1,5)              109.471          estimate D2E/DX2             !
 ! A4    A(3,1,4)              109.4714         estimate D2E/DX2             !
 ! A5    A(3,1,5)              109.4714         estimate D2E/DX2             !
 ! A6    A(4,1,5)              109.4714         estimate D2E/DX2             !
 -----------------------------------------------------------------------------
 Trust Radius=3.00D-01 FncErr=1.00D-07 GrdErr=1.00D-06
 Number of steps in this run=  20 maximum allowed number of steps= 100.
 GradGradGradGradGradGradGradGradGradGradGradGradGradGradGradGradGradGrad

 Leave Link  103 at Fri Nov 25 15:13:28 2005, MaxMem=    6291456 cpu:       0.2
 (Enter /home1/soft/g98_2/g98/l202.exe)
                          Input orientation:                          
 ---------------------------------------------------------------------
 Center     Atomic     Atomic              Coordinates (Angstroms)
 Number     Number      Type              X           Y           Z
 ---------------------------------------------------------------------
    1          6             0        0.000000    0.000000    0.000000
    2          1             0        0.000000    0.000000    1.089000
    3          1             0        1.026720    0.000000   -0.362996
    4          1             0       -0.513360   -0.889166   -0.362996
    5         17             0       -0.824959    1.428871   -0.583327
 ---------------------------------------------------------------------
                    Distance matrix (angstroms):
                    1          2          3          4          5
     1  C    0.000000
     2  H    1.089000   0.000000
     3  H    1.089000   1.778327   0.000000
     4  H    1.089000   1.778327   1.778332   0.000000
     5  Cl   1.750000   2.349235   2.349241   2.349241   0.000000
 Symmetry turned off by external request.
 This structure is nearly, but not quite of a higher symmetry.
 Consider Symm=Loose if the higher symmetry is desired.
 Stoichiometry    CH3Cl
 Framework group  C1[X(CH3Cl)]
 Deg. of freedom    9
 Full point group                 C1      NOp   1
 Rotational constants (GHZ):    158.5652487     13.7190684     13.7190641
 Isotopes: C-12,H-1,H-1,H-1,Cl-35
 Leave Link  202 at Fri Nov 25 15:13:29 2005, MaxMem=    6291456 cpu:       0.2
 (Enter /home1/soft/g98_2/g98/l301.exe)
 Standard basis: 6-311+G(d,p) (5D, 7F)
 Basis set in the form of general basis input:
  1 0
 S    6 1.00
  0.4563240000D+04  0.1966650000D-02
  0.6820240000D+03  0.1523060000D-01
  0.1549730000D+03  0.7612690000D-01
  0.4445530000D+02  0.2608010000D+00
  0.1302900000D+02  0.6164620000D+00
  0.1827730000D+01  0.2210060000D+00
 SP   3 1.00
  0.2096420000D+02  0.1146600000D+00  0.4024870000D-01
  0.4803310000D+01  0.9199990000D+00  0.2375940000D+00
  0.1459330000D+01 -0.3030680000D-02  0.8158540000D+00
 SP   1 1.00
  0.4834560000D+00  0.1000000000D+01  0.1000000000D+01
 SP   1 1.00
  0.1455850000D+00  0.1000000000D+01  0.1000000000D+01
 SP   1 1.00
  0.4380000000D-01  0.1000000000D+01  0.1000000000D+01
 D    1 1.00
  0.6260000000D+00  0.1000000000D+01
 ****
  2 0
 S    3 1.00
  0.3386500000D+02  0.2549380000D-01
  0.5094790000D+01  0.1903730000D+00
  0.1158790000D+01  0.8521610000D+00
 S    1 1.00
  0.3258400000D+00  0.1000000000D+01
 S    1 1.00
  0.1027410000D+00  0.1000000000D+01
 P    1 1.00
  0.7500000000D+00  0.1000000000D+01
 ****
  3 0
 S    3 1.00
  0.3386500000D+02  0.2549380000D-01
  0.5094790000D+01  0.1903730000D+00
  0.1158790000D+01  0.8521610000D+00
 S    1 1.00
  0.3258400000D+00  0.1000000000D+01
 S    1 1.00
  0.1027410000D+00  0.1000000000D+01
 P    1 1.00
  0.7500000000D+00  0.1000000000D+01
 ****
  4 0
 S    3 1.00
  0.3386500000D+02  0.2549380000D-01
  0.5094790000D+01  0.1903730000D+00
  0.1158790000D+01  0.8521610000D+00
 S    1 1.00
  0.3258400000D+00  0.1000000000D+01
 S    1 1.00
  0.1027410000D+00  0.1000000000D+01
 P    1 1.00
  0.7500000000D+00  0.1000000000D+01
 ****
  5 0
 S    6 1.00
  0.1058190000D+06  0.7380000000D-03
  0.1587200000D+05  0.5718000000D-02
  0.3619650000D+04  0.2949500000D-01
  0.1030800000D+04  0.1172860000D+00
  0.3399080000D+03  0.3629490000D+00
  0.1245380000D+03  0.5841490000D+00
 S    3 1.00
  0.1245380000D+03  0.1341770000D+00
  0.4951350000D+02  0.6242500000D+00
  0.2080560000D+02  0.2917560000D+00
 S    1 1.00
  0.6583460000D+01  0.1000000000D+01
 S    1 1.00
  0.2564680000D+01  0.1000000000D+01
 S    1 1.00
  0.5597630000D+00  0.1000000000D+01
 S    1 1.00
  0.1832730000D+00  0.1000000000D+01
 P    5 1.00
  0.5897760000D+03  0.2391000000D-02
  0.1398490000D+03  0.1850400000D-01
  0.4514130000D+02  0.8137700000D-01
  0.1687330000D+02  0.2215520000D+00
  0.6741100000D+01  0.7725690000D+00
 P    2 1.00
  0.6741100000D+01 -0.1572244000D+01
  0.2771520000D+01  0.9923890000D+00
 P    1 1.00
  0.1023870000D+01  0.1000000000D+01
 P    1 1.00
  0.3813680000D+00  0.1000000000D+01
 P    1 1.00
  0.1094370000D+00  0.1000000000D+01
 SP   1 1.00
  0.4830000000D-01  0.1000000000D+01  0.1000000000D+01
 D    1 1.00
  0.7500000000D+00  0.1000000000D+01
 ****

 Integral buffers will be    262144 words long.
 Raffenetti 2 integral format.
 Two-electron integral symmetry is turned off.
    70 basis functions      113 primitive gaussians
    13 alpha electrons       13 beta electrons
       nuclear repulsion energy        51.9709058317 Hartrees.
 Leave Link  301 at Fri Nov 25 15:13:29 2005, MaxMem=    6291456 cpu:       0.2
 (Enter /home1/soft/g98_2/g98/l302.exe)
 One-electron integrals computed using PRISM.
 NBasis=    70 RedAO= T  NBF=    70
 NBsUse=    70 1.00D-04 NBFU=    70
 Leave Link  302 at Fri Nov 25 15:13:31 2005, MaxMem=    6291456 cpu:       1.5
 (Enter /home1/soft/g98_2/g98/l303.exe)
 DipDrv:  MaxL=1.
 Leave Link  303 at Fri Nov 25 15:13:31 2005, MaxMem=    6291456 cpu:       0.4
 (Enter /home1/soft/g98_2/g98/l401.exe)
 Projected CNDO Guess.
 Leave Link  401 at Fri Nov 25 15:13:32 2005, MaxMem=    6291456 cpu:       0.8
 (Enter /home1/soft/g98_2/g98/l502.exe)
 IExCor= 402 DFT=T Ex=B+HF Corr=LYP ScaHFX= 0.2000
 ScaDFX=  0.8000  0.7200  1.0000  0.8100
 IRadAn=      0 IRanWt=     -1 IRanGd=            0 ICorTp=0
 Using DIIS extrapolation.
 Closed shell SCF:
 Requested convergence on RMS density matrix=1.00D-08 within  64 cycles.
 Requested convergence on MAX density matrix=1.00D-06.
 Two-electron integral symmetry not used.
 IEnd=     21746 IEndB=     21746 NGot=   6291456 MDV=   6279191
 LenX=   6279191
 Fock matrices will be formed incrementally for  20 cycles.

 Cycle   1  Pass 1  IDiag 1:
 Symmetry not used in FoFDir.
 MinBra= 0 MaxBra= 2 Meth= 1.
 IRaf=       0 NMat=   1 IRICut=       1 DoRegI=T DoRafI=F ISym2E= 0 JSym2E=0.
 E=-0.551079555041910D+03
 DIIS: error= 1.80D+00 at cycle   1.
 T= 3000. Gap= 0.295 NK=0 IS=    1 IE=   70
          NO(<0.9)=   0  NV(>0.1)=   0  13.00e < EF 0.00e >EF  Err=5.2D-11
 RMSDP=1.70D-02 MaxDP=4.22D-01

 Cycle   2  Pass 1  IDiag 1:
 RMSU=  1.69D-02    CP:  9.68D-01
 E=-0.552112967820556D+03 Delta-E=       -1.033412778646
 DIIS: error= 2.47D-02 at cycle   2.
 Coeff:-0.588D-02-0.994D+00
 T= 2700. Gap= 0.300 NK=0 IS=    1 IE=   70
          NO(<0.9)=   0  NV(>0.1)=   0  13.00e < EF 0.00e >EF  Err=5.9D-11
 RMSDP=2.53D-03 MaxDP=4.16D-02

 Cycle   3  Pass 1  IDiag 1:
 RMSU=  2.45D-03    CP:  9.64D-01  1.04D+00
 E=-0.552113825974203D+03 Delta-E=       -0.000858153647
 DIIS: error= 1.19D-02 at cycle   3.
 Coeff:-0.110D-02-0.372D+00-0.627D+00
 T= 2400. Gap= 0.295 NK=0 IS=    1 IE=   70
          NO(<0.9)=   0  NV(>0.1)=   0  13.00e < EF 0.00e >EF  Err=4.1D-11
 RMSDP=1.73D-03 MaxDP=2.21D-02

 Cycle   4  Pass 1  IDiag 1:
 RMSU=  6.84D-04    CP:  9.64D-01  1.05D+00  3.57D-01
 E=-0.552119751765474D+03 Delta-E=       -0.005925791270
 DIIS: error= 6.78D-03 at cycle   4.
 Coeff: 0.515D-04-0.925D-01-0.342D+00-0.566D+00
 T= 1058. Gap= 0.299 NK=0 IS=    1 IE=   70
          NO(<0.9)=   0  NV(>0.1)=   0  13.00e < EF 0.00e >EF  Err=0.0D+00
 RMSDP=4.91D-04 MaxDP=9.18D-03

 Cycle   5  Pass 1  IDiag 1:
 RMSU=  1.47D-04    CP:  9.64D-01  1.04D+00  5.10D-01  6.00D-01
 E=-0.552121512985154D+03 Delta-E=       -0.001761219680
 DIIS: error= 4.22D-04 at cycle   5.
 Coeff: 0.338D-04-0.257D-01-0.997D-01-0.185D+00-0.689D+00
 RMSDP=5.78D-05 MaxDP=7.91D-04

 Cycle   6  Pass 1  IDiag 1:
 RMSU=  3.09D-05    CP:  9.64D-01  1.04D+00  5.20D-01  6.19D-01  7.42D-01
 E=-0.552121527418483D+03 Delta-E=       -0.000014433329
 DIIS: error= 8.04D-05 at cycle   6.
 Coeff: 0.718D-05 0.915D-04-0.528D-02-0.176D-01-0.215D+00-0.762D+00
 RMSDP=1.57D-05 MaxDP=4.06D-04

 Cycle   7  Pass 1  IDiag 1:
 RMSU=  9.53D-06    CP:  9.64D-01  1.04D+00  5.19D-01  6.18D-01  8.05D-01
                    CP:  7.84D-01
 E=-0.552121528238231D+03 Delta-E=       -0.000000819748
 DIIS: error= 2.05D-05 at cycle   7.
 Coeff: 0.793D-06 0.378D-03 0.965D-03-0.492D-03-0.618D-01-0.307D+00
 Coeff:-0.632D+00
 RMSDP=5.02D-06 MaxDP=8.20D-05

 Cycle   8  Pass 1  IDiag 1:
 RMSU=  1.11D-06    CP:  9.64D-01  1.04D+00  5.18D-01  6.20D-01  8.07D-01
                    CP:  8.31D-01  6.37D-01
 E=-0.552121528298938D+03 Delta-E=       -0.000000060706
 DIIS: error= 1.71D-06 at cycle   8.
 Coeff:-0.137D-06 0.489D-04 0.225D-03 0.552D-03-0.746D-05-0.657D-03
 Coeff:-0.774D-01-0.923D+00
 RMSDP=4.97D-07 MaxDP=7.11D-06

 Cycle   9  Pass 1  IDiag 1:
 RMSU=  1.61D-07    CP:  9.64D-01  1.04D+00  5.18D-01  6.20D-01  8.08D-01
                    CP:  8.31D-01  6.70D-01  9.25D-01
 E=-0.552121528299611D+03 Delta-E=       -0.000000000674
 DIIS: error= 2.84D-07 at cycle   9.
 Coeff:-0.425D-07 0.278D-05 0.219D-04 0.110D-03 0.164D-02 0.840D-02
 Coeff: 0.660D-03-0.199D+00-0.812D+00
 RMSDP=8.11D-08 MaxDP=9.88D-07

 Cycle  10  Pass 1  IDiag 1:
 RMSU=  1.47D-08    CP:  9.64D-01  1.04D+00  5.18D-01  6.20D-01  8.08D-01
                    CP:  8.31D-01  6.70D-01  9.54D-01  8.88D-01
 E=-0.552121528299624D+03 Delta-E=       -0.000000000013
 DIIS: error= 9.33D-09 at cycle  10.
 Coeff: 0.121D-08-0.328D-06-0.141D-05-0.392D-05 0.196D-04 0.169D-04
 Coeff: 0.768D-03 0.510D-02 0.116D-01-0.102D+01
 RMSDP=3.38D-09 MaxDP=4.38D-08

 SCF Done:  E(RB+HF-LYP) =  -500.150622468     A.U. after   10 cycles
             Convg  =    0.3375D-08             -V/T =  2.0025
             S**2   =   0.0000
 KE= 4.989172545117D+02 PE=-1.290426266685D+03 EE= 2.393874838739D+02
 Leave Link  502 at Fri Nov 25 15:15:41 2005, MaxMem=    6291456 cpu:     127.7
 (Enter /home1/soft/g98_2/g98/l601.exe)
 Copying SCF densities to generalized density rwf, ISCF=0 IROHF=0.

 **********************************************************************

            Population analysis using the SCF density.

 **********************************************************************

 Alpha  occ. eigenvalues -- -101.54419 -10.22846  -9.45928  -7.22398  -7.21383
 Alpha  occ. eigenvalues --   -7.21383  -0.86695  -0.68151  -0.45767  -0.45767
 Alpha  occ. eigenvalues --   -0.42658  -0.30279  -0.30279
 Alpha virt. eigenvalues --   -0.00416   0.01516   0.04846   0.04847   0.07321
 Alpha virt. eigenvalues --    0.09291   0.09944   0.09944   0.13147   0.13148
 Alpha virt. eigenvalues --    0.17443   0.20134   0.38513   0.38513   0.39590
 Alpha virt. eigenvalues --    0.46919   0.46921   0.48039   0.56544   0.56544
 Alpha virt. eigenvalues --    0.61721   0.79964   0.79964   0.81951   0.87680
 Alpha virt. eigenvalues --    0.87681   0.89571   1.13500   1.13500   1.16055
 Alpha virt. eigenvalues --    1.42228   1.51516   1.51517   1.68557   1.69533
 Alpha virt. eigenvalues --    1.69533   1.97293   2.11783   2.11784   2.32514
 Alpha virt. eigenvalues --    2.32517   2.37149   2.38729   2.46109   2.46110
 Alpha virt. eigenvalues --    2.49301   2.49301   2.81241   3.23966   3.71219
 Alpha virt. eigenvalues --    3.71219   9.71862  23.84608  25.84442  25.84453
 Alpha virt. eigenvalues --   26.27454 215.69973
     Molecular Orbital Coefficients
                           1         2         3         4         5
                           O         O         O         O         O
     EIGENVALUES --  -101.54419 -10.22846  -9.45928  -7.22398  -7.21383
   1 1   C  1S          0.00000   0.56302  -0.00004   0.00004   0.00000
   2        2S         -0.00001   0.46322  -0.00008   0.00006   0.00000
   3        2PX        -0.00002  -0.00056  -0.00029   0.00010  -0.00002
   4        2PY         0.00003   0.00097   0.00051  -0.00017   0.00000
   5        2PZ        -0.00001  -0.00040  -0.00021   0.00007   0.00002
   6        3S          0.00001   0.01899   0.00020  -0.00034   0.00000
   7        3PX         0.00004   0.00140   0.00075  -0.00015   0.00005
   8        3PY        -0.00006  -0.00243  -0.00131   0.00026   0.00001
   9        3PZ         0.00003   0.00099   0.00053  -0.00010  -0.00006
  10        4S          0.00035  -0.00871   0.00607   0.00073   0.00000
  11        4PX        -0.00009   0.00014  -0.00160  -0.00015   0.00009
  12        4PY         0.00015  -0.00024   0.00277   0.00026   0.00001
  13        4PZ        -0.00006   0.00010  -0.00113  -0.00010  -0.00010
  14        5S         -0.00133  -0.00850  -0.02717  -0.00037   0.00000
  15        5PX         0.00021   0.00057   0.00429   0.00010   0.00000
  16        5PY        -0.00036  -0.00099  -0.00743  -0.00017   0.00000
  17        5PZ         0.00015   0.00040   0.00303   0.00007   0.00000
  18        6D 0        0.00002   0.00047   0.00035  -0.00009  -0.00003
  19        6D+1       -0.00001  -0.00038  -0.00029   0.00008  -0.00002
  20        6D-1        0.00002   0.00066   0.00050  -0.00013  -0.00003
  21        6D+2        0.00002   0.00054   0.00041  -0.00011   0.00002
  22        6D-2        0.00003   0.00093   0.00070  -0.00019   0.00002
  23 2   H  1S          0.00000   0.00018   0.00001   0.00005  -0.00001
  24        2S         -0.00010  -0.00371  -0.00175  -0.00002   0.00013
  25        3S          0.00007   0.00418   0.00150  -0.00004  -0.00001
  26        4PX         0.00000  -0.00008   0.00002   0.00002  -0.00002
  27        4PY         0.00000   0.00014  -0.00003  -0.00004   0.00002
  28        4PZ         0.00003   0.00229   0.00046  -0.00005  -0.00005
  29 3   H  1S          0.00000   0.00018   0.00001   0.00005   0.00002
  30        2S         -0.00010  -0.00371  -0.00175  -0.00002  -0.00015
  31        3S          0.00007   0.00418   0.00150  -0.00004   0.00001
  32        4PX         0.00003   0.00213   0.00044  -0.00004   0.00006
  33        4PY         0.00000   0.00014  -0.00003  -0.00004  -0.00002
  34        4PZ        -0.00001  -0.00084  -0.00013   0.00004   0.00000
  35 4   H  1S          0.00000   0.00018   0.00001   0.00005   0.00000
  36        2S         -0.00010  -0.00371  -0.00175  -0.00002   0.00002
  37        3S          0.00007   0.00418   0.00150  -0.00004   0.00000
  38        4PX        -0.00001  -0.00118  -0.00019   0.00005  -0.00001
  39        4PY        -0.00002  -0.00178  -0.00039   0.00002   0.00001
  40        4PZ        -0.00001  -0.00084  -0.00013   0.00004   0.00001
  41 5   Cl 1S          0.41161  -0.00001  -0.12179  -0.00081   0.00000
  42        2S          0.65408  -0.00002  -0.32694  -0.00222   0.00000
  43        3S          0.01500   0.00008   0.49748   0.00357   0.00000
  44        4S         -0.00396  -0.00013   0.61070   0.00404   0.00000
  45        5S          0.00149   0.00028   0.05848   0.00020   0.00000
  46        6S         -0.00111   0.00057  -0.02462  -0.00079   0.00000
  47        7PX         0.00006  -0.00013   0.00370  -0.58143  -0.79934
  48        7PY        -0.00011   0.00022  -0.00642   1.00704  -0.07911
  49        7PZ         0.00004  -0.00009   0.00262  -0.41112   0.93668
  50        8PX         0.00004  -0.00009   0.00097  -0.15722  -0.21608
  51        8PY        -0.00006   0.00016  -0.00169   0.27231  -0.02139
  52        8PZ         0.00003  -0.00007   0.00069  -0.11117   0.25320
  53        9PX        -0.00004   0.00022   0.00028  -0.02506  -0.03381
  54        9PY         0.00007  -0.00038  -0.00049   0.04340  -0.00335
  55        9PZ        -0.00003   0.00016   0.00020  -0.01772   0.03962
  56       10PX         0.00003  -0.00006   0.00024   0.00028   0.00045
  57       10PY        -0.00006   0.00010  -0.00041  -0.00048   0.00004
  58       10PZ         0.00002  -0.00004   0.00017   0.00020  -0.00053
  59       11PX        -0.00014   0.00058  -0.00230  -0.00014   0.00004
  60       11PY         0.00023  -0.00100   0.00398   0.00024   0.00000
  61       11PZ        -0.00010   0.00041  -0.00163  -0.00010  -0.00005
  62       12S          0.00145   0.00558   0.02996   0.00044   0.00000
  63       12PX         0.00026   0.00055   0.00519   0.00007  -0.00007
  64       12PY        -0.00045  -0.00095  -0.00898  -0.00013  -0.00001
  65       12PZ         0.00019   0.00039   0.00367   0.00005   0.00008
  66       13D 0        0.00000  -0.00004  -0.00014   0.00025   0.00020
  67       13D+1        0.00000   0.00003   0.00012  -0.00020   0.00007
  68       13D-1        0.00000  -0.00005  -0.00020   0.00035  -0.00029
  69       13D+2        0.00000  -0.00004  -0.00017   0.00028  -0.00016
  70       13D-2        0.00000  -0.00007  -0.00029   0.00049   0.00023
                           6         7         8         9        10
                           O         O         O         O         O
     EIGENVALUES --    -7.21383  -0.86695  -0.68151  -0.45767  -0.45767
   1 1   C  1S          0.00000  -0.06161  -0.09075   0.00000   0.00000
   2        2S          0.00000  -0.09520  -0.14147   0.00000   0.00000
   3        2PX         0.00002  -0.01676   0.02424   0.17519  -0.01359
   4        2PY         0.00002   0.02903  -0.04199   0.09252   0.06836
   5        2PZ         0.00002  -0.01185   0.01714  -0.02113   0.18666
   6        3S          0.00000   0.24930   0.38032   0.00000   0.00000
   7        3PX        -0.00005  -0.03688   0.02902   0.25804  -0.02001
   8        3PY        -0.00005   0.06388  -0.05026   0.13628   0.10069
   9        3PZ        -0.00004  -0.02608   0.02052  -0.03112   0.27493
  10        4S          0.00000   0.12562   0.28184   0.00000   0.00000
  11        4PX        -0.00008  -0.00304   0.01056   0.18437  -0.01430
  12        4PY        -0.00008   0.00526  -0.01829   0.09736   0.07194
  13        4PZ        -0.00007  -0.00215   0.00747  -0.02224   0.19643
  14        5S          0.00000   0.15920   0.01519   0.00003   0.00003
  15        5PX         0.00000  -0.02263   0.00194   0.00696  -0.00054
  16        5PY         0.00000   0.03919  -0.00336   0.00369   0.00273
  17        5PZ         0.00000  -0.01600   0.00137  -0.00084   0.00742
  18        6D 0       -0.00002  -0.00678   0.00318  -0.00175   0.01546
  19        6D+1        0.00005   0.00554  -0.00259  -0.01635  -0.00524
  20        6D-1        0.00001  -0.00959   0.00449  -0.01031   0.00470
  21        6D+2        0.00001  -0.00783   0.00367   0.00622  -0.00508
  22        6D-2        0.00002  -0.01357   0.00636  -0.00210  -0.01026
  23 2   H  1S         -0.00001   0.03481   0.08586  -0.01741   0.15381
  24        2S          0.00010   0.04687   0.10110  -0.02220   0.19614
  25        3S          0.00000  -0.01652   0.00052  -0.00762   0.06726
  26        4PX         0.00000  -0.00079   0.00132   0.00937  -0.00049
  27        4PY         0.00002   0.00136  -0.00229   0.00501   0.00325
  28        4PZ        -0.00003  -0.01092  -0.01501   0.00135  -0.01190
  29 3   H  1S         -0.00001   0.03481   0.08586   0.14191  -0.06183
  30        2S          0.00007   0.04687   0.10110   0.18097  -0.07884
  31        3S          0.00000  -0.01652   0.00052   0.06205  -0.02704
  32        4PX        -0.00002  -0.01056  -0.01371  -0.00958   0.00754
  33        4PY         0.00002   0.00136  -0.00229   0.00458   0.00384
  34        4PZ         0.00001   0.00290   0.00625   0.00581   0.00699
  35 4   H  1S          0.00002   0.03481   0.08586  -0.12450  -0.09198
  36        2S         -0.00016   0.04687   0.10110  -0.15876  -0.11730
  37        3S          0.00001  -0.01652   0.00052  -0.05444  -0.04022
  38        4PX        -0.00001   0.00410   0.00884   0.00078  -0.00710
  39        4PY        -0.00007   0.00983   0.01073  -0.00929  -0.00686
  40        4PZ         0.00000   0.00290   0.00625  -0.00723   0.00551
  41 5   Cl 1S          0.00000   0.03139  -0.02079   0.00000   0.00000
  42        2S          0.00000   0.08977  -0.05965   0.00000   0.00000
  43        3S          0.00000  -0.18115   0.12211   0.00000   0.00000
  44        4S          0.00000  -0.33863   0.22446   0.00000   0.00000
  45        5S          0.00000   0.51920  -0.35047   0.00000   0.00000
  46        6S          0.00000   0.43905  -0.34778   0.00000   0.00000
  47        7PX         0.73842  -0.03033  -0.02717  -0.09934   0.00770
  48        7PY         0.70801   0.05254   0.04706  -0.05246  -0.03876
  49        7PZ         0.68995  -0.02145  -0.01921   0.01198  -0.10584
  50        8PX         0.19961  -0.00777  -0.00683  -0.02444   0.00189
  51        8PY         0.19139   0.01346   0.01183  -0.01290  -0.00953
  52        8PZ         0.18651  -0.00549  -0.00483   0.00295  -0.02603
  53        9PX         0.03124   0.02112   0.01881   0.07148  -0.00554
  54        9PY         0.02995  -0.03658  -0.03259   0.03775   0.02789
  55        9PZ         0.02919   0.01494   0.01330  -0.00862   0.07616
  56       10PX        -0.00042   0.04141   0.03860   0.15765  -0.01223
  57       10PY        -0.00040  -0.07173  -0.06685   0.08326   0.06151
  58       10PZ        -0.00039   0.02928   0.02729  -0.01902   0.16797
  59       11PX        -0.00004   0.00877   0.00142   0.06232  -0.00483
  60       11PY        -0.00004  -0.01518  -0.00247   0.03292   0.02432
  61       11PZ        -0.00003   0.00620   0.00100  -0.00752   0.06640
  62       12S          0.00000  -0.15792  -0.01018  -0.00002  -0.00003
  63       12PX         0.00006  -0.02691   0.00236  -0.00810   0.00062
  64       12PY         0.00006   0.04660  -0.00407  -0.00427  -0.00315
  65       12PZ         0.00006  -0.01903   0.00166   0.00097  -0.00863
  66       13D 0        0.00015  -0.00972  -0.00450  -0.00200   0.01771
  67       13D+1        0.00021   0.00793   0.00368   0.00619   0.01241
  68       13D-1       -0.00012  -0.01374  -0.00637   0.00660  -0.01953
  69       13D+2        0.00034  -0.01122  -0.00520   0.02473   0.00719
  70       13D-2       -0.00010  -0.01944  -0.00901  -0.01541   0.00587
                          11        12        13        14        15
                           O         O         O         V         V
     EIGENVALUES --    -0.42658  -0.30279  -0.30279  -0.00416   0.01516
   1 1   C  1S          0.00119   0.00000   0.00000   0.05456  -0.00590
   2        2S          0.00243   0.00000   0.00000   0.08989  -0.00931
   3        2PX         0.07634  -0.01288  -0.06584   0.01877  -0.05051
   4        2PY        -0.13223  -0.03459  -0.02706  -0.03251   0.08746
   5        2PZ         0.05398  -0.06652   0.02682   0.01327  -0.03572
   6        3S         -0.01254   0.00000   0.00000  -0.27328   0.02271
   7        3PX         0.12477  -0.01714  -0.08760   0.03115  -0.08057
   8        3PY        -0.21611  -0.04603  -0.03601  -0.05398   0.13951
   9        3PZ         0.08823  -0.08850   0.03569   0.02203  -0.05698
  10        4S         -0.06137   0.00001   0.00001  -0.79035   0.06577
  11        4PX         0.08144  -0.00945  -0.04830   0.09519  -0.15829
  12        4PY        -0.14105  -0.02538  -0.01985  -0.16485   0.27414
  13        4PZ         0.05758  -0.04880   0.01968   0.06731  -0.11191
  14        5S         -0.10075   0.00011   0.00006   1.62297   4.87770
  15        5PX         0.01354   0.00065   0.00339   0.17602  -0.89626
  16        5PY        -0.02346   0.00182   0.00141  -0.30475   1.55297
  17        5PZ         0.00958   0.00342  -0.00139   0.12447  -0.63382
  18        6D 0        0.00986  -0.02041   0.00823  -0.00162   0.00570
  19        6D+1       -0.00805  -0.00842   0.00329   0.00133  -0.00465
  20        6D-1        0.01395   0.01450  -0.00591  -0.00230   0.00806
  21        6D+2        0.01139  -0.01079  -0.02241  -0.00188   0.00658
  22        6D-2        0.01973   0.00274   0.01435  -0.00325   0.01140
  23 2   H  1S          0.04721  -0.07256   0.02926  -0.00528  -0.00284
  24        2S          0.06722  -0.12385   0.04995   0.08105   0.06508
  25        3S          0.03998  -0.09966   0.04018  -0.26312  -0.21174
  26        4PX         0.00458  -0.00252  -0.00506   0.00314  -0.00766
  27        4PY        -0.00792  -0.00050  -0.00331  -0.00543   0.01326
  28        4PZ        -0.00158   0.00484  -0.00195   0.01277   0.00281
  29 3   H  1S          0.04721   0.01094  -0.07747  -0.00528  -0.00284
  30        2S          0.06721   0.01867  -0.13223   0.08106   0.06509
  31        3S          0.03998   0.01502  -0.10640  -0.26313  -0.21175
  32        4PX         0.00004  -0.00253   0.00446   0.01308   0.00010
  33        4PY        -0.00792  -0.00333   0.00031  -0.00543   0.01326
  34        4PZ         0.00484  -0.00496  -0.00288  -0.00130  -0.00816
  35 4   H  1S          0.04721   0.06162   0.04821  -0.00528  -0.00283
  36        2S          0.06721   0.10518   0.08229   0.08105   0.06507
  37        3S          0.03998   0.08463   0.06621  -0.26303  -0.21150
  38        4PX         0.00684   0.00472  -0.00108  -0.00184  -0.01153
  39        4PY        -0.00399   0.00295   0.00231  -0.01404   0.00655
  40        4PZ         0.00484  -0.00157   0.00551  -0.00130  -0.00816
  41 5   Cl 1S          0.00786   0.00000   0.00000   0.00319  -0.01165
  42        2S          0.02272   0.00000   0.00000   0.00931  -0.03364
  43        3S         -0.04807   0.00000   0.00000  -0.02052   0.07072
  44        4S         -0.08245   0.00000   0.00000  -0.03241   0.13277
  45        5S          0.11895  -0.00001   0.00000   0.03830  -0.23225
  46        6S          0.21759   0.00002   0.00000   0.18163  -0.47972
  47        7PX         0.13099  -0.05638  -0.28817  -0.04842   0.03206
  48        7PY        -0.22689  -0.15140  -0.11845   0.08387  -0.05552
  49        7PZ         0.09262  -0.29113   0.11740  -0.03424   0.02267
  50        8PX         0.03266  -0.01383  -0.07069  -0.01138   0.00723
  51        8PY        -0.05658  -0.03714  -0.02906   0.01971  -0.01252
  52        8PZ         0.02310  -0.07142   0.02880  -0.00804   0.00512
  53        9PX        -0.09833   0.04260   0.21775   0.03538  -0.02088
  54        9PY         0.17031   0.11441   0.08951  -0.06130   0.03615
  55        9PZ        -0.06953   0.21999  -0.08871   0.02502  -0.01477
  56       10PX        -0.19805   0.09194   0.46997   0.09953  -0.08269
  57       10PY         0.34302   0.24691   0.19317  -0.17238   0.14325
  58       10PZ        -0.14003   0.47479  -0.19147   0.07038  -0.05846
  59       11PX        -0.07407   0.06322   0.32316   0.16440  -0.06575
  60       11PY         0.12831   0.16980   0.13285  -0.28490   0.11374
  61       11PZ        -0.05238   0.32648  -0.13166   0.11624  -0.04657
  62       12S          0.13938  -0.00013  -0.00006  -0.09040  -3.75684
  63       12PX         0.02406  -0.00447  -0.02277  -0.00217  -0.80068
  64       12PY        -0.04169  -0.01194  -0.00935   0.00396   1.38681
  65       12PZ         0.01702  -0.02302   0.00927  -0.00153  -0.56600
  66       13D 0        0.01412   0.00094  -0.00038   0.02105  -0.01137
  67       13D+1       -0.01153   0.00258   0.00156  -0.01718   0.00928
  68       13D-1        0.01997  -0.00238   0.00246   0.02976  -0.01607
  69       13D+2        0.01630   0.00205   0.00225   0.02430  -0.01313
  70       13D-2        0.02824   0.00108  -0.00221   0.04209  -0.02273
                          16        17        18        19        20
                           V         V         V         V         V
     EIGENVALUES --     0.04846   0.04847   0.07321   0.09291   0.09944
   1 1   C  1S          0.00000   0.00000  -0.02623   0.01157  -0.00001
   2        2S          0.00000   0.00000  -0.04290   0.01864  -0.00001
   3        2PX        -0.06094   0.05079  -0.05510   0.07252  -0.00746
   4        2PY        -0.05198  -0.00100   0.09534  -0.12569   0.00526
   5        2PZ        -0.04097  -0.07427  -0.03896   0.05130   0.02341
   6        3S         -0.00001   0.00001   0.10743  -0.03178   0.00002
   7        3PX        -0.10396   0.08662  -0.09411   0.10098  -0.01288
   8        3PY        -0.08866  -0.00170   0.16286  -0.17505   0.00910
   9        3PZ        -0.06989  -0.12669  -0.06653   0.07144   0.04040
  10        4S         -0.00001   0.00005   0.75633  -0.47481   0.00030
  11        4PX        -0.20118   0.16772  -0.20102   0.41756  -0.00873
  12        4PY        -0.17168  -0.00331   0.34775  -0.72338   0.00618
  13        4PZ        -0.13526  -0.24529  -0.14215   0.29533   0.02747
  14        5S         -0.00030  -0.00039  -1.02850  -1.23318   0.00033
  15        5PX         0.89862  -0.74846   0.84162   0.22369   0.45958
  16        5PY         0.76593   0.01455  -1.45656  -0.38325  -0.32411
  17        5PZ         0.60411   1.09482   0.59514   0.15719  -1.44345
  18        6D 0       -0.00501  -0.00907  -0.00848  -0.00687   0.01051
  19        6D+1        0.01283  -0.00342   0.00693   0.00561   0.00238
  20        6D-1        0.00383  -0.00846  -0.01199  -0.00971  -0.00251
  21        6D+2       -0.00005   0.00518  -0.00979  -0.00794  -0.00242
  22        6D-2        0.00507   0.00613  -0.01695  -0.01373  -0.00112
  23 2   H  1S         -0.01056  -0.01914  -0.01806  -0.00475   0.01899
  24        2S          0.04415   0.08000  -0.04053  -0.05704   0.00082
  25        3S         -0.12671  -0.22931  -0.12040   0.03976   0.32649
  26        4PX         0.00482  -0.00229   0.00187   0.00618  -0.00273
  27        4PY         0.00242  -0.00198  -0.00324  -0.01069   0.00606
  28        4PZ         0.00385   0.00698  -0.00175  -0.00728  -0.00397
  29 3   H  1S         -0.01129   0.01872  -0.01806  -0.00476  -0.01203
  30        2S          0.04721  -0.07826  -0.04054  -0.05704  -0.00054
  31        3S         -0.13550   0.22426  -0.12042   0.03958  -0.20708
  32        4PX         0.00546  -0.00561  -0.00102  -0.00480   0.00208
  33        4PY         0.00234   0.00207  -0.00324  -0.01069  -0.00534
  34        4PZ         0.00309   0.00461   0.00235   0.00825  -0.00166
  35 4   H  1S          0.02187   0.00042  -0.01805  -0.00472  -0.00697
  36        2S         -0.09137  -0.00177  -0.04061  -0.05704  -0.00031
  37        3S          0.26199   0.00503  -0.12053   0.04028  -0.11988
  38        4PX         0.00339  -0.00349   0.00332   0.01166   0.00329
  39        4PY         0.00689   0.00013  -0.00073  -0.00118  -0.00259
  40        4PZ         0.00225   0.00507   0.00235   0.00824  -0.00268
  41 5   Cl 1S          0.00000   0.00000  -0.00301   0.00263   0.00000
  42        2S          0.00001   0.00000  -0.00886   0.00784   0.00000
  43        3S         -0.00002   0.00000   0.02023  -0.01858   0.00000
  44        4S         -0.00004   0.00000   0.02815  -0.02205  -0.00001
  45        5S          0.00007   0.00001  -0.01977  -0.00409   0.00003
  46        6S          0.00015  -0.00003  -0.21943   0.36702   0.00001
  47        7PX         0.03040  -0.02532   0.02355  -0.08743  -0.02803
  48        7PY         0.02591   0.00050  -0.04078   0.15118   0.01975
  49        7PZ         0.02043   0.03703   0.01664  -0.06176   0.08806
  50        8PX         0.00811  -0.00676   0.00475  -0.02167  -0.00752
  51        8PY         0.00691   0.00013  -0.00822   0.03747   0.00530
  52        8PZ         0.00546   0.00988   0.00335  -0.01531   0.02363
  53        9PX        -0.03029   0.02523  -0.01113   0.07480   0.02887
  54        9PY        -0.02581  -0.00050   0.01928  -0.12930  -0.02035
  55        9PZ        -0.02036  -0.03689  -0.00786   0.05283  -0.09069
  56       10PX        -0.03136   0.02615  -0.07285   0.14851   0.02518
  57       10PY        -0.02678  -0.00051   0.12612  -0.25697  -0.01772
  58       10PZ        -0.02108  -0.03824  -0.05151   0.10497  -0.07908
  59       11PX        -0.14229   0.11849  -0.11568   0.62940   0.19812
  60       11PY        -0.12124  -0.00236   0.20052  -1.08846  -0.13967
  61       11PZ        -0.09567  -0.17327  -0.08169   0.44461  -0.62254
  62       12S         -0.00005   0.00043   1.50577   1.72554  -0.00019
  63       12PX         0.02851  -0.02346  -0.18319  -0.47800  -0.64737
  64       12PY         0.02363   0.00044   0.31675   0.82219   0.45647
  65       12PZ         0.01919   0.03438  -0.12976  -0.33663   2.03342
  66       13D 0       -0.00515  -0.00935  -0.03427   0.02438  -0.01119
  67       13D+1       -0.00616  -0.00390   0.02797  -0.01989  -0.00896
  68       13D-1        0.00359   0.01065  -0.04846   0.03448   0.01922
  69       13D+2       -0.01374   0.00508  -0.03957   0.02818  -0.00198
  70       13D-2        0.00551  -0.00738  -0.06853   0.04875  -0.01053
                          21        22        23        24        25
                           V         V         V         V         V
     EIGENVALUES --     0.09944   0.13147   0.13148   0.17443   0.20134
   1 1   C  1S          0.00001  -0.00001   0.00000  -0.01558  -0.05445
   2        2S          0.00001  -0.00001   0.00000  -0.02546  -0.08619
   3        2PX         0.02096   0.10772   0.07606  -0.00888   0.03855
   4        2PY         0.01337   0.08591  -0.00853   0.01538  -0.06679
   5        2PZ         0.00369   0.05808  -0.12844  -0.00629   0.02726
   6        3S         -0.00002   0.00003   0.00000   0.08598   0.17511
   7        3PX         0.03615   0.09884   0.06980  -0.02413   0.03627
   8        3PY         0.02313   0.07885  -0.00783   0.04180  -0.06283
   9        3PZ         0.00632   0.05330  -0.11787  -0.01706   0.02565
  10        4S         -0.00020   0.00026  -0.00001   0.04289   2.72170
  11        4PX         0.02507   1.03660   0.73191   0.05248   0.32807
  12        4PY         0.01498   0.82660  -0.08207  -0.09090  -0.56836
  13        4PZ         0.00475   0.55893  -1.23600   0.03708   0.23202
  14        5S          0.00008  -0.00015   0.00049 -12.24991   9.12733
  15        5PX        -1.28647   0.88368   0.62367   2.33332  -0.96371
  16        5PY        -0.83381   0.70439  -0.06981  -4.04181   1.66912
  17        5PZ        -0.22233   0.47647  -1.05358   1.64984  -0.68138
  18        6D 0        0.00161  -0.01862   0.04118   0.00326  -0.00666
  19        6D+1       -0.00426   0.02189   0.01388  -0.00266   0.00544
  20        6D-1       -0.00308   0.01609   0.00037   0.00460  -0.00942
  21        6D+2        0.00844  -0.02682  -0.02005   0.00376  -0.00769
  22        6D-2       -0.00529   0.02235  -0.00361   0.00651  -0.01333
  23 2   H  1S          0.00291  -0.03203   0.07083  -0.01074  -0.05048
  24        2S          0.00002  -0.10953   0.24222   0.00183  -0.06532
  25        3S          0.04992  -1.07998   2.38788  -0.13127  -2.53192
  26        4PX        -0.00425   0.01563   0.00622  -0.00442   0.00291
  27        4PY        -0.00130   0.00829   0.00522   0.00765  -0.00505
  28        4PZ        -0.00062  -0.00994   0.02198  -0.00903  -0.01379
  29 3   H  1S          0.01497  -0.04533  -0.06315  -0.01075  -0.05048
  30        2S          0.00056  -0.15500  -0.21595   0.00182  -0.06529
  31        3S          0.25752  -1.52832  -2.12909  -0.13138  -2.53184
  32        4PX        -0.00462  -0.00856  -0.02153  -0.00999  -0.01204
  33        4PY         0.00313   0.00710  -0.00675   0.00765  -0.00504
  34        4PZ        -0.00364   0.01798  -0.00211  -0.00116   0.00734
  35 4   H  1S         -0.01792   0.07735  -0.00768  -0.01075  -0.05049
  36        2S         -0.00086   0.26450  -0.02625   0.00183  -0.06532
  37        3S         -0.30803   2.60776  -0.25886  -0.13154  -2.53211
  38        4PX         0.00149  -0.01123   0.01237  -0.00163   0.01039
  39        4PY        -0.00666  -0.01871   0.00186   0.01248   0.00790
  40        4PZ         0.00300  -0.01029  -0.01490  -0.00115   0.00734
  41 5   Cl 1S          0.00000   0.00000   0.00000  -0.01059   0.00219
  42        2S          0.00001   0.00000   0.00000  -0.03125   0.00636
  43        3S         -0.00003   0.00000   0.00000   0.07157  -0.01378
  44        4S         -0.00003   0.00000   0.00000   0.10100  -0.02425
  45        5S         -0.00001   0.00002   0.00000  -0.09268   0.03986
  46        6S          0.00059  -0.00004   0.00006  -1.26730   0.24671
  47        7PX         0.07837   0.02857   0.02018   0.01890   0.00694
  48        7PY         0.05105   0.02278  -0.00225  -0.03275  -0.01206
  49        7PZ         0.01349   0.01541  -0.03407   0.01336   0.00491
  50        8PX         0.02103   0.00683   0.00482   0.00443   0.00178
  51        8PY         0.01370   0.00545  -0.00054  -0.00766  -0.00310
  52        8PZ         0.00362   0.00368  -0.00815   0.00313   0.00126
  53        9PX        -0.08074  -0.02336  -0.01650  -0.01399  -0.00671
  54        9PY        -0.05255  -0.01863   0.00184   0.02420   0.01164
  55        9PZ        -0.01391  -0.01260   0.02786  -0.00989  -0.00474
  56       10PX        -0.07029  -0.05403  -0.03816  -0.04969  -0.00275
  57       10PY        -0.04599  -0.04307   0.00426   0.08620   0.00484
  58       10PZ        -0.01204  -0.02914   0.06445  -0.03509  -0.00193
  59       11PX        -0.55406  -0.21113  -0.14910   0.04045  -0.08828
  60       11PY        -0.36091  -0.16837   0.01666  -0.07044   0.15298
  61       11PZ        -0.09543  -0.11386   0.25181   0.02856  -0.06244
  62       12S          0.00076   0.00039  -0.00048  13.66253  -6.12516
  63       12PX         1.81151  -0.13575  -0.09579   2.27493  -0.62460
  64       12PY         1.17593  -0.10838   0.01096  -3.93975   1.08156
  65       12PZ         0.31277  -0.07314   0.16172   1.60861  -0.44169
  66       13D 0       -0.00170   0.00355  -0.00785   0.01478  -0.00507
  67       13D+1       -0.01203   0.05274  -0.00830  -0.01207   0.00414
  68       13D-1       -0.00314   0.00257   0.05685   0.02091  -0.00717
  69       13D+2       -0.02068   0.04536  -0.00017   0.01707  -0.00585
  70       13D-2        0.01021  -0.00827  -0.03955   0.02957  -0.01014
                          26        27        28        29        30
                           V         V         V         V         V
     EIGENVALUES --     0.38513   0.38513   0.39590   0.46919   0.46921
   1 1   C  1S          0.00000   0.00000   0.00038  -0.00001   0.00002
   2        2S          0.00000   0.00000  -0.00318  -0.00002   0.00004
   3        2PX        -0.06390  -0.01460  -0.00814  -0.01373   0.01519
   4        2PY        -0.02536  -0.03462   0.01410  -0.00027   0.01318
   5        2PZ         0.02825  -0.06412  -0.00577   0.01859   0.01140
   6        3S          0.00000   0.00000  -0.03823   0.00006  -0.00021
   7        3PX        -0.04446  -0.01014  -0.09571  -0.00551   0.00632
   8        3PY        -0.01763  -0.02410   0.16577   0.00005   0.00468
   9        3PZ         0.01965  -0.04460  -0.06769   0.00726   0.00474
  10        4S          0.00006  -0.00010   1.31007   0.00002   0.00063
  11        4PX         1.06167   0.24265   0.30920   0.30764  -0.33962
  12        4PY         0.42134   0.57518  -0.53568   0.00635  -0.29728
  13        4PZ        -0.46926   1.06544   0.21884  -0.41711  -0.25496
  14        5S          0.00004   0.00010  -1.38215  -0.00042   0.00030
  15        5PX        -1.37431  -0.31414  -0.25850  -0.41620   0.45868
  16        5PY        -0.54539  -0.74452   0.44796  -0.00935   0.40465
  17        5PZ         0.60745  -1.37922  -0.18306   0.56521   0.34437
  18        6D 0       -0.00626   0.01421  -0.02076  -0.00996  -0.00606
  19        6D+1       -0.01291  -0.00834   0.01695  -0.00453   0.01775
  20        6D-1       -0.00971   0.00031  -0.02936  -0.01319   0.00383
  21        6D+2        0.00821  -0.00193  -0.02398   0.00576   0.00267
  22        6D-2       -0.00002  -0.00961  -0.04153   0.00912   0.00606
  23 2   H  1S          0.02996  -0.06802  -0.02594  -0.00828  -0.00500
  24        2S          0.55916  -1.26955  -0.57097   0.17220   0.10554
  25        3S         -0.81085   1.84098   0.35266  -0.23327  -0.14228
  26        4PX         0.01340   0.00346   0.01295  -0.01651  -0.00325
  27        4PY         0.00566   0.00672  -0.02244   0.02162   0.01708
  28        4PZ        -0.03438   0.07807   0.02085  -0.02226  -0.01356
  29 3   H  1S         -0.07389   0.00807  -0.02593   0.00847  -0.00460
  30        2S         -1.37913   0.15059  -0.57072  -0.17751   0.09740
  31        3S          1.99977  -0.21834   0.35228   0.23989  -0.13128
  32        4PX         0.07971  -0.00412   0.02396   0.02711  -0.01262
  33        4PY         0.00470   0.00742  -0.02243  -0.02239   0.01605
  34        4PZ        -0.02896   0.01612   0.00527   0.00807   0.00184
  35 4   H  1S          0.04393   0.05996  -0.02593  -0.00024   0.00971
  36        2S          0.81991   1.11914  -0.57079   0.00445  -0.20134
  37        3S         -1.18893  -1.62277   0.35239  -0.00630   0.27285
  38        4PX         0.03288   0.02946   0.00745  -0.00408   0.00869
  39        4PY         0.03964   0.05411  -0.03197   0.00092  -0.03952
  40        4PZ         0.00766   0.03225   0.00527   0.00533   0.00634
  41 5   Cl 1S          0.00000   0.00000  -0.00445   0.00000   0.00000
  42        2S          0.00000   0.00000  -0.01346   0.00000  -0.00001
  43        3S          0.00000   0.00000   0.03356   0.00001   0.00001
  44        4S          0.00000   0.00000   0.03317   0.00001   0.00005
  45        5S          0.00000  -0.00001   0.00105  -0.00003  -0.00011
  46        6S         -0.00001   0.00001  -0.31134   0.00023  -0.00083
  47        7PX         0.04805   0.01099  -0.06099  -0.12648   0.13929
  48        7PY         0.01908   0.02603   0.10568  -0.00292   0.12337
  49        7PZ        -0.02125   0.04823  -0.04314   0.17189   0.10460
  50        8PX         0.01014   0.00232  -0.01134  -0.02351   0.02589
  51        8PY         0.00403   0.00549   0.01965  -0.00054   0.02294
  52        8PZ        -0.00448   0.01018  -0.00802   0.03195   0.01944
  53        9PX        -0.03213  -0.00735   0.02319   0.05559  -0.06123
  54        9PY        -0.01275  -0.01740  -0.04017   0.00129  -0.05430
  55        9PZ         0.01420  -0.03224   0.01639  -0.07557  -0.04599
  56       10PX        -0.14901  -0.03410   0.34625   0.63171  -0.69570
  57       10PY        -0.05919  -0.08068  -0.59998   0.01450  -0.61569
  58       10PZ         0.06590  -0.14955   0.24496  -0.85837  -0.52240
  59       11PX        -0.26990  -0.06163  -0.99400  -1.46930   1.61787
  60       11PY        -0.10701  -0.14631   1.72226  -0.03390   1.43285
  61       11PZ         0.11922  -0.27084  -0.70321   1.99667   1.21486
  62       12S         -0.00005   0.00000   0.51863   0.00037  -0.00024
  63       12PX         0.54157   0.12376   0.77053   1.04532  -1.15119
  64       12PY         0.21488   0.29346  -1.33506   0.02382  -1.01853
  65       12PZ        -0.23933   0.54349   0.54514  -1.42013  -0.86439
  66       13D 0       -0.03770   0.08561  -0.04936  -0.04471  -0.02717
  67       13D+1        0.01272   0.07332   0.04032  -0.01753  -0.04120
  68       13D-1        0.06503  -0.08864  -0.06983   0.06164   0.02001
  69       13D+2        0.11346   0.07573  -0.05701   0.02788  -0.07346
  70       13D-2       -0.08745   0.00610  -0.09873  -0.04454   0.02522
                          31        32        33        34        35
                           V         V         V         V         V
     EIGENVALUES --     0.48039   0.56544   0.56544   0.61721   0.79964
   1 1   C  1S          0.02112   0.00000   0.00000  -0.03691   0.00000
   2        2S          0.04109   0.00000   0.00000  -0.06256   0.00001
   3        2PX         0.07943  -0.20742  -0.12417   0.06632   0.00857
   4        2PY        -0.13763  -0.15586   0.02745  -0.11489  -0.01462
   5        2PZ         0.05618  -0.08844   0.24282   0.04691  -0.04793
   6        3S         -0.20370   0.00001  -0.00001   0.10156  -0.00006
   7        3PX         0.28214  -0.73049  -0.43730   0.34259  -0.00904
   8        3PY        -0.48871  -0.54889   0.09668  -0.59344   0.01542
   9        3PZ         0.19952  -0.31149   0.85518   0.24229   0.05057
  10        4S          0.58582  -0.00005  -0.00004   0.88736   0.00018
  11        4PX        -0.97574   1.40173   0.83916  -0.64834   0.05505
  12        4PY         1.69122   1.05327  -0.18553   1.12312  -0.09387
  13        4PZ        -0.69020   0.59771  -1.64101  -0.45850  -0.30775
  14        5S          0.34647  -0.00006   0.00001  -1.17325   0.00020
  15        5PX         0.20529   0.35300   0.21129  -0.03813  -0.06013
  16        5PY        -0.35707   0.26521  -0.04671   0.06605   0.10253
  17        5PZ         0.14546   0.15050  -0.41323  -0.02702   0.33603
  18        6D 0        0.00190   0.02619  -0.07190   0.01604  -0.03164
  19        6D+1       -0.00157  -0.00880  -0.02592  -0.01310  -0.15595
  20        6D-1        0.00267  -0.02195   0.03135   0.02268   0.27141
  21        6D+2        0.00219   0.06899   0.02670   0.01852  -0.10333
  22        6D-2        0.00378  -0.04100  -0.01222   0.03208  -0.18009
  23 2   H  1S          0.03755   0.03589  -0.09854  -0.09427   0.01901
  24        2S          0.48827   0.20975  -0.57580  -1.12455   0.28727
  25        3S         -0.16127  -0.83262   2.28599   1.50860  -0.36847
  26        4PX         0.00762  -0.01754  -0.01900   0.00338  -0.05927
  27        4PY        -0.01321  -0.01949   0.01474  -0.00585   0.10355
  28        4PZ        -0.00083   0.01690  -0.04640  -0.00403   0.01552
  29 3   H  1S          0.03756   0.06739   0.08035  -0.09427  -0.00954
  30        2S          0.48814   0.39385   0.46958  -1.12449  -0.14422
  31        3S         -0.16112  -1.56347  -1.86413   1.50844   0.18487
  32        4PX         0.00178   0.02658   0.04362  -0.00267  -0.04588
  33        4PY        -0.01323  -0.02335  -0.00719  -0.00585  -0.13591
  34        4PZ         0.00747  -0.02000   0.00987   0.00453  -0.10643
  35 4   H  1S          0.03753  -0.10328   0.01819  -0.09427  -0.00946
  36        2S          0.48850  -0.60353   0.10632  -1.12451  -0.14308
  37        3S         -0.16155   2.39604  -0.42198   1.50857   0.18341
  38        4PX         0.01054   0.00471  -0.01639   0.00640   0.14056
  39        4PY        -0.00807   0.05318  -0.00936  -0.00061  -0.02800
  40        4PZ         0.00746   0.00897   0.02042   0.00453  -0.10703
  41 5   Cl 1S         -0.00025   0.00000   0.00000  -0.00729   0.00000
  42        2S         -0.00094   0.00000   0.00000  -0.02026   0.00000
  43        3S          0.00377   0.00000   0.00000   0.03581   0.00000
  44        4S         -0.00414   0.00000   0.00000   0.11922   0.00001
  45        5S          0.07089   0.00001   0.00001  -0.33888  -0.00003
  46        6S         -0.87059   0.00000   0.00002  -0.37186   0.00003
  47        7PX        -0.09162  -0.00478  -0.00287   0.01828  -0.00646
  48        7PY         0.15819  -0.00359   0.00063  -0.03168   0.01101
  49        7PZ        -0.06469  -0.00204   0.00560   0.01292   0.03610
  50        8PX        -0.01999  -0.00264  -0.00158   0.00358  -0.00157
  51        8PY         0.03453  -0.00199   0.00035  -0.00620   0.00268
  52        8PZ        -0.01412  -0.00113   0.00309   0.00253   0.00878
  53        9PX         0.06699   0.01780   0.01066  -0.00698   0.00729
  54        9PY        -0.11580   0.01338  -0.00235   0.01211  -0.01243
  55        9PZ         0.04732   0.00759  -0.02084  -0.00493  -0.04075
  56       10PX         0.27415  -0.06240  -0.03732  -0.15299   0.01066
  57       10PY        -0.47239  -0.04689   0.00826   0.26505  -0.01817
  58       10PZ         0.19340  -0.02661   0.07303  -0.10814  -0.05960
  59       11PX        -1.04078  -0.06839  -0.04101  -0.18164  -0.02950
  60       11PY         1.79697  -0.05142   0.00901   0.31441   0.05030
  61       11PZ        -0.73489  -0.02916   0.08017  -0.12853   0.16489
  62       12S         -0.41751   0.00009   0.00004  -0.84545  -0.00017
  63       12PX         0.34593  -0.10065  -0.06019  -0.24120   0.02955
  64       12PY        -0.59514  -0.07565   0.01332   0.41789  -0.05038
  65       12PZ         0.24387  -0.04290   0.11778  -0.17046  -0.16533
  66       13D 0        0.02687  -0.01965   0.05396   0.03120   0.51007
  67       13D+1       -0.02189   0.04864   0.01205  -0.02546   0.26265
  68       13D-1        0.03798   0.02387   0.01851   0.04411  -0.45542
  69       13D+2        0.03110  -0.02206  -0.02527   0.03603   0.07399
  70       13D-2        0.05367   0.02554  -0.02056   0.06238   0.13151
                          36        37        38        39        40
                           V         V         V         V         V
     EIGENVALUES --     0.79964   0.81951   0.87680   0.87681   0.89571
   1 1   C  1S          0.00000   0.11102   0.00001   0.00000   0.03181
   2        2S          0.00000   0.22675   0.00002   0.00000   0.05760
   3        2PX        -0.04401  -0.02561   0.01096   0.00428   0.08042
   4        2PY        -0.02545   0.04435   0.00720  -0.00256  -0.13931
   5        2PZ        -0.00011  -0.01811   0.00231  -0.01234   0.05687
   6        3S         -0.00001  -2.19331  -0.00019   0.00001  -0.47354
   7        3PX         0.04643   0.06706   0.05426   0.02124   0.08798
   8        3PY         0.02686  -0.11615   0.03589  -0.01272  -0.15243
   9        3PZ         0.00011   0.04741   0.01137  -0.06122   0.06222
  10        4S          0.00003   6.89328   0.00044  -0.00001   0.92102
  11        4PX        -0.28256   0.08871  -0.26317  -0.10302  -0.38810
  12        4PY        -0.16344  -0.15363  -0.17408   0.06170   0.67241
  13        4PZ        -0.00068   0.06276  -0.05513   0.29695  -0.27446
  14        5S          0.00014   5.50313  -0.00171   0.00028  -4.75952
  15        5PX         0.30852  -0.58590  -0.07348  -0.02896   0.86529
  16        5PY         0.17848   1.01481  -0.04944   0.01740  -1.49864
  17        5PZ         0.00075  -0.41430  -0.01522   0.08327   0.61184
  18        6D 0       -0.00007   0.05786  -0.01284   0.06913  -0.07608
  19        6D+1       -0.24906  -0.04723   0.01614   0.02066   0.06211
  20        6D-1       -0.14297   0.08182   0.01658  -0.02752  -0.10761
  21        6D+2       -0.21170   0.06682  -0.06363  -0.01476  -0.08785
  22        6D-2        0.12168   0.11572   0.03791   0.00187  -0.15219
  23 2   H  1S          0.00004   0.04412   0.00059  -0.00319  -0.00787
  24        2S          0.00065  -0.58161   0.00965  -0.05235  -0.08499
  25        3S         -0.00087  -1.99296   0.06049  -0.32620   0.16489
  26        4PX        -0.16845  -0.01193  -0.03760  -0.00825   0.01169
  27        4PY        -0.09694   0.02067  -0.02225  -0.00189  -0.02023
  28        4PZ         0.00004   0.15746  -0.00097   0.00524   0.00279
  29 3   H  1S          0.01644   0.04412   0.00246   0.00211  -0.00788
  30        2S          0.24847  -0.58159   0.04045   0.03458  -0.08500
  31        3S         -0.31865  -1.99297   0.25229   0.21542   0.16484
  32        4PX        -0.03271   0.14448  -0.01182   0.00676   0.00652
  33        4PY         0.04058   0.02068  -0.01609   0.01547  -0.02023
  34        4PZ        -0.13278  -0.06373  -0.02130   0.02951   0.01009
  35 4   H  1S         -0.01648   0.04412  -0.00306   0.00108  -0.00787
  36        2S         -0.24912  -0.58159  -0.05025   0.01778  -0.08497
  37        3S          0.31944  -1.99295  -0.31265   0.11071   0.16504
  38        4PX         0.01943  -0.09015  -0.01251  -0.02278   0.01428
  39        4PY        -0.04875  -0.11478  -0.00273   0.00097  -0.01577
  40        4PZ         0.13229  -0.06374   0.00932   0.03518   0.01009
  41 5   Cl 1S          0.00000  -0.00644   0.00001   0.00000   0.02087
  42        2S          0.00000  -0.01781   0.00002   0.00000   0.05631
  43        3S          0.00000   0.03062  -0.00003   0.00000  -0.08378
  44        4S          0.00001   0.11161  -0.00016   0.00002  -0.41763
  45        5S         -0.00004  -0.32665   0.00064  -0.00009   1.68877
  46        6S          0.00007  -0.24266  -0.00106   0.00014  -2.81744
  47        7PX         0.03315  -0.00205   0.00462   0.00180  -0.01079
  48        7PY         0.01917   0.00355   0.00307  -0.00109   0.01874
  49        7PZ         0.00008  -0.00145   0.00096  -0.00522  -0.00764
  50        8PX         0.00806  -0.00181   0.00114   0.00045  -0.00819
  51        8PY         0.00466   0.00313   0.00076  -0.00027   0.01419
  52        8PZ         0.00002  -0.00128   0.00023  -0.00129  -0.00579
  53        9PX        -0.03742   0.01750  -0.00574  -0.00225   0.06091
  54        9PY        -0.02164  -0.03029  -0.00385   0.00136  -0.10556
  55        9PZ        -0.00010   0.01238  -0.00118   0.00650   0.04308
  56       10PX        -0.05472  -0.12577  -0.00468  -0.00179  -0.21511
  57       10PY        -0.03165   0.21784  -0.00292   0.00106   0.37256
  58       10PZ        -0.00013  -0.08892  -0.00102   0.00519  -0.15211
  59       11PX         0.15141  -0.34234   0.05291   0.02073  -0.02307
  60       11PY         0.08756   0.59293   0.03513  -0.01244   0.04009
  61       11PZ         0.00037  -0.24209   0.01106  -0.05976  -0.01631
  62       12S         -0.00014  -4.46567   0.00193  -0.00030   5.36024
  63       12PX        -0.15181  -0.51028   0.00917   0.00345   0.74342
  64       12PY        -0.08775   0.88383   0.00542  -0.00201  -1.28777
  65       12PZ        -0.00039  -0.36080   0.00205  -0.01007   0.52567
  66       13D 0        0.00117   0.02044  -0.12470   0.67250  -0.21103
  67       13D+1        0.09520  -0.01672   0.86569  -0.05003   0.17205
  68       13D-1        0.05360   0.02893   0.41260   0.44099  -0.29866
  69       13D+2        0.64091   0.02362  -0.11754  -0.32117  -0.24373
  70       13D-2       -0.36964   0.04091   0.19156  -0.48304  -0.42229
                          41        42        43        44        45
                           V         V         V         V         V
     EIGENVALUES --     1.13500   1.13500   1.16055   1.42228   1.51516
   1 1   C  1S          0.00000   0.00000  -0.01301   0.00000   0.00000
   2        2S          0.00000   0.00000  -0.01577   0.00000   0.00000
   3        2PX         0.01959  -0.00290  -0.03364   0.00000  -0.07990
   4        2PY         0.01095   0.00697   0.05826   0.00000  -0.03472
   5        2PZ        -0.00092   0.02115  -0.02378   0.00000   0.02795
   6        3S         -0.00003  -0.00001  -0.19789   0.00000   0.00000
   7        3PX        -0.10251   0.01516  -0.06830   0.00000   0.03293
   8        3PY        -0.05720  -0.03643   0.11833   0.00000   0.01431
   9        3PZ         0.00479  -0.11067  -0.04830   0.00000  -0.01152
  10        4S          0.00033   0.00012   2.36429   0.00001   0.00001
  11        4PX         0.61631  -0.09114  -0.15680   0.00002  -1.12246
  12        4PY         0.34410   0.21905   0.27139   0.00001  -0.48774
  13        4PZ        -0.02886   0.66541  -0.11083   0.00000   0.39269
  14        5S         -0.00037  -0.00002  -3.61833   0.00000  -0.00002
  15        5PX        -0.11359   0.01680   0.49915  -0.00001   0.51863
  16        5PY        -0.06351  -0.04038  -0.86450   0.00000   0.22535
  17        5PZ         0.00535  -0.12268   0.35294   0.00000  -0.18144
  18        6D 0       -0.00023   0.00563   0.08643   0.00000   0.23978
  19        6D+1       -0.25419  -0.15946  -0.07053  -0.00001   0.41785
  20        6D-1       -0.16156   0.25011   0.12224  -0.00001   0.19735
  21        6D+2       -0.17334  -0.11369   0.09983   0.00001  -0.54393
  22        6D-2        0.11072  -0.17911   0.17284   0.00000   0.22519
  23 2   H  1S          0.00105  -0.02425   0.00524   0.00000   0.06191
  24        2S          0.01017  -0.23655  -0.56872   0.00000  -0.47681
  25        3S          0.00557  -0.12819   0.13622   0.00000   0.23871
  26        4PX        -0.13541  -0.23846  -0.03613   0.52010   0.32956
  27        4PY        -0.10140   0.39846   0.06261   0.30028   0.09622
  28        4PZ         0.00114  -0.02621   0.00050   0.00000  -0.06370
  29 3   H  1S         -0.02153   0.01122   0.00524   0.00000  -0.18747
  30        2S         -0.21004   0.10935  -0.56870  -0.00002   1.44386
  31        3S         -0.11378   0.05929   0.13623   0.00001  -0.72285
  32        4PX        -0.11306   0.00418  -0.01157  -0.17337   0.16035
  33        4PY         0.31811  -0.26050   0.06258  -0.30029   0.24750
  34        4PZ        -0.24997  -0.02456  -0.03422  -0.49036  -0.12521
  35 4   H  1S          0.02048   0.01304   0.00524   0.00000   0.12556
  36        2S          0.19964   0.12711  -0.56875   0.00002  -0.96706
  37        3S          0.10826   0.06891   0.13620  -0.00001   0.48413
  38        4PX         0.19879   0.24162  -0.04847  -0.34674   0.32443
  39        4PY        -0.24441  -0.15560   0.04138   0.00000   0.01012
  40        4PZ         0.25115  -0.00284  -0.03428   0.49035  -0.09598
  41 5   Cl 1S          0.00000   0.00000   0.02846   0.00000   0.00000
  42        2S          0.00001   0.00000   0.07809   0.00000   0.00000
  43        3S         -0.00001   0.00000  -0.12807   0.00000   0.00000
  44        4S         -0.00007  -0.00001  -0.54292   0.00000   0.00000
  45        5S          0.00027   0.00006   2.23406   0.00000   0.00001
  46        6S         -0.00040  -0.00009  -3.29554   0.00000  -0.00002
  47        7PX         0.00312  -0.00046   0.01074   0.00000   0.01259
  48        7PY         0.00174   0.00110  -0.01857   0.00000   0.00547
  49        7PZ        -0.00015   0.00337   0.00759   0.00000  -0.00440
  50        8PX         0.00297  -0.00044   0.00535   0.00000   0.00407
  51        8PY         0.00166   0.00106  -0.00925   0.00000   0.00177
  52        8PZ        -0.00014   0.00321   0.00378   0.00000  -0.00142
  53        9PX        -0.02214   0.00327  -0.03456   0.00000  -0.02755
  54        9PY        -0.01235  -0.00786   0.05980   0.00000  -0.01197
  55        9PZ         0.00104  -0.02391  -0.02442   0.00000   0.00964
  56       10PX         0.10596  -0.01566   0.08372   0.00000   0.03408
  57       10PY         0.05912   0.03764  -0.14502   0.00000   0.01481
  58       10PZ        -0.00495   0.11439   0.05919   0.00000  -0.01192
  59       11PX        -0.48426   0.07156  -0.71204  -0.00001   0.30047
  60       11PY        -0.27011  -0.17201   1.23350   0.00000   0.13057
  61       11PZ         0.02258  -0.52275  -0.50350   0.00000  -0.10513
  62       12S          0.00037   0.00000   3.81496   0.00000   0.00003
  63       12PX         0.24150  -0.03569   0.84767   0.00000  -0.26971
  64       12PY         0.13460   0.08577  -1.46833   0.00000  -0.11721
  65       12PZ        -0.01123   0.26064   0.59939   0.00000   0.09437
  66       13D 0        0.01567  -0.36073   0.18817   0.00000  -0.02446
  67       13D+1       -0.11896  -0.22706  -0.15362   0.00000  -0.01693
  68       13D-1       -0.09079   0.38042   0.26608   0.00000   0.00933
  69       13D+2       -0.49329  -0.10003   0.21733   0.00000   0.07366
  70       13D-2        0.29274  -0.12353   0.37626   0.00000  -0.04381
                          46        47        48        49        50
                           V         V         V         V         V
     EIGENVALUES --     1.51517   1.68557   1.69533   1.69533   1.97293
   1 1   C  1S          0.00000   0.00589   0.00000   0.00000  -0.01142
   2        2S          0.00000   0.00293   0.00000   0.00000  -0.01214
   3        2PX        -0.01125   0.12113  -0.01228  -0.10463   0.04608
   4        2PY        -0.03981  -0.20981  -0.05097  -0.04648  -0.07980
   5        2PZ        -0.08161   0.08568  -0.10732   0.03405   0.03258
   6        3S          0.00001   0.26362   0.00006  -0.00002  -0.06386
   7        3PX         0.00464  -0.09690   0.02690   0.22885  -0.02028
   8        3PY         0.01641   0.16784   0.11144   0.10170   0.03512
   9        3PZ         0.03364  -0.06858   0.23478  -0.07449  -0.01434
  10        4S         -0.00002  -1.34278  -0.00028   0.00012   0.33078
  11        4PX        -0.15806   0.81241  -0.05594  -0.47695   0.29674
  12        4PY        -0.55928  -1.40715  -0.23242  -0.21183  -0.51398
  13        4PZ        -1.14639   0.57459  -0.48918   0.15519   0.20983
  14        5S         -0.00001   0.81276   0.00012  -0.00009   1.24242
  15        5PX         0.07303  -0.32264  -0.02164  -0.18344  -0.10500
  16        5PY         0.25841   0.55882  -0.08921  -0.08160   0.18187
  17        5PZ         0.52969  -0.22810  -0.18828   0.05975  -0.07425
  18        6D 0       -0.69999   0.20654   0.60706  -0.19261  -0.27724
  19        6D+1        0.08113  -0.16879   0.13637  -0.18034   0.22637
  20        6D-1        0.17500   0.29234  -0.32745   0.02475  -0.39208
  21        6D+2       -0.06083   0.23866   0.18174   0.59705  -0.32013
  22        6D-2        0.29449   0.41334  -0.12106  -0.33960  -0.55448
  23 2   H  1S         -0.18073   0.15438   0.25314  -0.08032  -0.24895
  24        2S          1.39194  -0.37340  -0.71664   0.22738   0.48761
  25        3S         -0.69687   0.21128   0.86860  -0.27559  -0.64350
  26        4PX        -0.01995  -0.18724  -0.14545   0.48337  -0.29987
  27        4PY         0.26304   0.32432   0.54299   0.08014   0.51938
  28        4PZ         0.18598  -0.11551   0.08421  -0.02671   0.04715
  29 3   H  1S          0.03675   0.15447  -0.05698   0.25935  -0.24895
  30        2S         -0.28305  -0.37364   0.16132  -0.73422   0.48762
  31        3S          0.14172   0.21157  -0.19558   0.88997  -0.64351
  32        4PX         0.07227  -0.17134   0.13813   0.01850  -0.05550
  33        4PY         0.13110   0.32445   0.12916   0.53338   0.51938
  34        4PZ         0.31785  -0.13821   0.44769  -0.20664  -0.29843
  35 4   H  1S          0.14398   0.15446  -0.19608  -0.17907  -0.24895
  36        2S         -1.10889  -0.37361   0.55511   0.50694   0.48761
  37        3S          0.55516   0.21154  -0.67289  -0.61443  -0.64350
  38        4PX         0.06235  -0.19529   0.12381   0.48930  -0.42204
  39        4PY         0.01161   0.31060  -0.18950  -0.17310   0.30775
  40        4PZ         0.32787  -0.13820   0.48494  -0.08925  -0.29843
  41 5   Cl 1S          0.00000  -0.00186   0.00000   0.00000  -0.00320
  42        2S          0.00000  -0.00380   0.00000   0.00000  -0.00951
  43        3S          0.00000  -0.00649   0.00000   0.00000   0.02267
  44        4S          0.00000   0.08908   0.00002  -0.00001   0.03809
  45        5S          0.00000  -0.57846  -0.00010   0.00006  -0.11687
  46        6S          0.00001   1.90419   0.00036  -0.00018   0.29134
  47        7PX         0.00177  -0.10766  -0.01389  -0.11793  -0.01278
  48        7PY         0.00627   0.18644  -0.05737  -0.05244   0.02213
  49        7PZ         0.01285  -0.07608  -0.12103   0.03840  -0.00904
  50        8PX         0.00057  -0.03052  -0.00442  -0.03752  -0.00692
  51        8PY         0.00203   0.05285  -0.01826  -0.01668   0.01199
  52        8PZ         0.00415  -0.02156  -0.03851   0.01222  -0.00489
  53        9PX        -0.00388   0.18808   0.02943   0.24987   0.05868
  54        9PY        -0.01373  -0.32571   0.12157   0.11110  -0.10162
  55        9PZ        -0.02814   0.13291   0.25641  -0.08136   0.04150
  56       10PX         0.00480   0.05828  -0.02104  -0.17897  -0.11430
  57       10PY         0.01698  -0.10099  -0.08714  -0.07954   0.19797
  58       10PZ         0.03481   0.04127  -0.18362   0.05826  -0.08083
  59       11PX         0.04232   0.44496   0.02603   0.22051   0.07314
  60       11PY         0.14971  -0.77068   0.10721   0.09809  -0.12668
  61       11PZ         0.30689   0.31456   0.22635  -0.07182   0.05172
  62       12S          0.00001  -1.09923  -0.00017   0.00012  -0.66686
  63       12PX        -0.03798  -0.27063  -0.00749  -0.06328  -0.08875
  64       12PY        -0.13439   0.46874  -0.03074  -0.02819   0.15371
  65       12PZ        -0.27546  -0.19134  -0.06499   0.02063  -0.06275
  66       13D 0        0.07141  -0.16357   0.11330  -0.03594   0.09041
  67       13D+1        0.02119   0.13351   0.14664   0.07693  -0.07382
  68       13D-1       -0.04355  -0.23124  -0.17181   0.12579   0.12786
  69       13D+2        0.02704  -0.18885   0.11955   0.18971   0.10440
  70       13D-2       -0.01187  -0.32711   0.05553  -0.14904   0.18082
                          51        52        53        54        55
                           V         V         V         V         V
     EIGENVALUES --     2.11783   2.11784   2.32514   2.32517   2.37149
   1 1   C  1S          0.00000   0.00000   0.00000   0.00000  -0.04463
   2        2S          0.00000   0.00000   0.00000   0.00000  -0.07489
   3        2PX        -0.12327   0.18993   0.05290  -0.06188   0.07752
   4        2PY         0.02040   0.14682  -0.00036  -0.05327  -0.13423
   5        2PZ         0.22429   0.09104  -0.07558  -0.04305   0.05481
   6        3S          0.00000   0.00000   0.00002  -0.00002   0.27967
   7        3PX         0.23845  -0.36741   0.06473  -0.07564  -0.12895
   8        3PY        -0.03945  -0.28402  -0.00041  -0.06515   0.22339
   9        3PZ        -0.43386  -0.17610  -0.09252  -0.05264  -0.09122
  10        4S          0.00001   0.00001   0.00001  -0.00001   0.17889
  11        4PX        -0.17745   0.27340  -0.04231   0.04946   0.04647
  12        4PY         0.02936   0.21136   0.00021   0.04266  -0.08048
  13        4PZ         0.32287   0.13105   0.06055   0.03442   0.03286
  14        5S         -0.00001  -0.00009   0.00004   0.00012   1.09379
  15        5PX        -0.15681   0.24163   0.05905  -0.06910   0.05268
  16        5PY         0.02594   0.18675  -0.00033  -0.05950  -0.09124
  17        5PZ         0.28532   0.11581  -0.08445  -0.04808   0.03726
  18        6D 0       -0.30284  -0.12292  -0.08903  -0.05069   0.14007
  19        6D+1        0.00130   0.84921  -0.03279   0.55857  -0.11441
  20        6D-1       -0.68521   0.21185  -0.51632   0.03939   0.19807
  21        6D+2        0.20477   0.28639   0.05312   0.30575   0.16175
  22        6D-2        0.51824   0.09300   0.36559   0.04896   0.28018
  23 2   H  1S         -0.27555  -0.11184  -0.05218  -0.02971  -0.66870
  24        2S          0.70522   0.28624   0.21155   0.12044   0.82070
  25        3S         -0.76264  -0.30954  -0.03282  -0.01865  -0.85311
  26        4PX         0.03049  -0.58414  -0.02036  -0.30830   0.10519
  27        4PY         0.42724  -0.17097   0.32988   0.01641  -0.18216
  28        4PZ        -0.19300  -0.07834  -0.16860  -0.09599   0.24823
  29 3   H  1S          0.23465  -0.18272   0.05184  -0.03033  -0.66867
  30        2S         -0.60053   0.46764  -0.21012   0.12301   0.82059
  31        3S          0.64941  -0.50570   0.03259  -0.01903  -0.85306
  32        4PX         0.09209  -0.30523   0.16337  -0.19529   0.26915
  33        4PY        -0.45766  -0.04806  -0.32963   0.02047  -0.18220
  34        4PZ        -0.23254  -0.47939  -0.04021  -0.25820   0.01642
  35 4   H  1S          0.04093   0.29457   0.00039   0.06000  -0.66868
  36        2S         -0.10474  -0.75390  -0.00154  -0.24336   0.82067
  37        3S          0.11325   0.81526   0.00025   0.03767  -0.85307
  38        4PX         0.38658   0.10487   0.17275   0.13442   0.02323
  39        4PY        -0.05381  -0.38742  -0.00219  -0.35493  -0.32412
  40        4PZ        -0.50086   0.18170  -0.24257   0.09729   0.01641
  41 5   Cl 1S          0.00000   0.00000   0.00000   0.00000   0.00117
  42        2S          0.00000   0.00000   0.00000   0.00000   0.00351
  43        3S          0.00000   0.00000   0.00000   0.00000  -0.00880
  44        4S          0.00000   0.00000   0.00000   0.00000  -0.01387
  45        5S          0.00000   0.00003  -0.00001  -0.00002   0.03911
  46        6S         -0.00001  -0.00004   0.00005   0.00001   0.07872
  47        7PX         0.17466  -0.26906  -0.38020   0.44454  -0.19756
  48        7PY        -0.02889  -0.20800   0.00229   0.38303   0.34207
  49        7PZ        -0.31778  -0.12896   0.54355   0.30934  -0.13964
  50        8PX         0.05673  -0.08739  -0.12558   0.14683  -0.06306
  51        8PY        -0.00938  -0.06756   0.00076   0.12651   0.10919
  52        8PZ        -0.10322  -0.04189   0.17953   0.10218  -0.04458
  53        9PX        -0.42368   0.65269   0.98573  -1.15255   0.50260
  54        9PY         0.07007   0.50457  -0.00593  -0.99307  -0.87025
  55        9PZ         0.77087   0.31282  -1.40923  -0.80201   0.35526
  56       10PX         0.41511  -0.63949  -1.09651   1.28209  -0.50889
  57       10PY        -0.06866  -0.49437   0.00659   1.10469   0.88111
  58       10PZ        -0.75528  -0.30650   1.56761   0.89216  -0.35969
  59       11PX        -0.23984   0.36949   0.65808  -0.76948   0.34511
  60       11PY         0.03968   0.28565  -0.00398  -0.66297  -0.59755
  61       11PZ         0.43638   0.17709  -0.94079  -0.53545   0.24394
  62       12S          0.00001   0.00010  -0.00007  -0.00012  -0.13513
  63       12PX         0.17233  -0.26548  -0.32601   0.38118  -0.14099
  64       12PY        -0.02851  -0.20527   0.00199   0.32847   0.24411
  65       12PZ        -0.31354  -0.12724   0.46605   0.26525  -0.09966
  66       13D 0        0.09390   0.03811   0.05787   0.03295  -0.00859
  67       13D+1        0.03936   0.02296   0.02377   0.03595   0.00702
  68       13D-1       -0.07380  -0.02593  -0.06345  -0.02314  -0.01216
  69       13D+2       -0.03537   0.11362  -0.03279   0.08340  -0.00993
  70       13D-2        0.04172  -0.05695   0.04454  -0.03356  -0.01719
                          56        57        58        59        60
                           V         V         V         V         V
     EIGENVALUES --     2.38729   2.46109   2.46110   2.49301   2.49301
   1 1   C  1S          0.02397   0.00000   0.00000   0.00000   0.00000
   2        2S          0.06608   0.00000   0.00000   0.00000   0.00000
   3        2PX        -0.26789  -0.64880   0.04817  -0.25793   0.31373
   4        2PY         0.46404  -0.34171  -0.25422  -0.26210   0.04472
   5        2PZ        -0.18944   0.08052  -0.69085  -0.27724  -0.33412
   6        3S         -0.56407   0.00000   0.00000   0.00000   0.00001
   7        3PX         0.05887  -0.63874   0.04738   0.82745  -1.00649
   8        3PY        -0.10194  -0.33643  -0.25029   0.84084  -0.14345
   9        3PZ         0.04163   0.07925  -0.68007   0.88942   1.07201
  10        4S         -0.37629   0.00001  -0.00001   0.00000   0.00003
  11        4PX        -0.40599  -0.93146   0.06913   0.16512  -0.20087
  12        4PY         0.70320  -0.49058  -0.36497   0.16780  -0.02862
  13        4PZ        -0.28706   0.11559  -0.99179   0.17750   0.21397
  14        5S         -1.35288  -0.00001  -0.00003  -0.00001   0.00001
  15        5PX         0.25577   0.22007  -0.01631  -0.32509   0.39543
  16        5PY        -0.44297   0.11590   0.08622  -0.33035   0.05636
  17        5PZ         0.18083  -0.02730   0.23431  -0.34943  -0.42117
  18        6D 0       -0.20506   0.11794  -1.01189  -0.01401  -0.01685
  19        6D+1        0.16739   0.52292  -0.05988   0.22623  -0.04647
  20        6D-1       -0.29005   0.26983   0.24071  -0.02966  -0.22001
  21        6D+2       -0.23680  -0.79414   0.04406   0.14398  -0.01343
  22        6D-2       -0.41011   0.42221   0.28585   0.03721   0.15280
  23 2   H  1S          0.21527   0.00591  -0.05077   0.69088   0.83269
  24        2S          0.01348  -0.20408   1.75120  -1.59071  -1.91730
  25        3S          0.49777   0.00445  -0.03833   0.94450   1.13837
  26        4PX         0.01507   0.04779   0.01564  -0.30718   0.25971
  27        4PY        -0.02605   0.03026  -0.01388  -0.18284   0.14333
  28        4PZ        -0.39374   0.15598  -1.33832   0.40480   0.48794
  29 3   H  1S          0.21527  -0.04696   0.02023   0.37569  -1.01468
  30        2S          0.01349   1.61871  -0.69877  -0.86499   2.33624
  31        3S          0.49775  -0.03548   0.01527   0.51361  -1.38716
  32        4PX        -0.36618  -1.15671   0.51727   0.08221  -0.60823
  33        4PY        -0.02611  -0.00461   0.03297  -0.22003  -0.07460
  34        4PZ         0.14545   0.43941  -0.13910  -0.42779   0.06320
  35 4   H  1S          0.21527   0.04104   0.03053  -1.06658   0.18197
  36        2S          0.01354  -1.41461  -1.05241   2.45572  -0.41896
  37        3S          0.49777   0.03101   0.02308  -1.45812   0.24876
  38        4PX         0.20570  -0.50069  -0.41342   0.33479   0.21493
  39        4PY         0.30415  -0.87342  -0.64979   0.51447  -0.08777
  40        4PZ         0.14542  -0.39563  -0.23645   0.14106  -0.40878
  41 5   Cl 1S          0.00046   0.00000   0.00000   0.00000   0.00000
  42        2S          0.00102   0.00000   0.00000   0.00000   0.00000
  43        3S          0.00092   0.00000   0.00000   0.00000   0.00000
  44        4S         -0.02365   0.00000   0.00000   0.00000   0.00000
  45        5S          0.22286   0.00001   0.00001   0.00000   0.00000
  46        6S         -0.79485  -0.00002  -0.00001  -0.00001   0.00000
  47        7PX        -0.26726  -0.08943   0.00663  -0.03441   0.04184
  48        7PY         0.46275  -0.04709  -0.03504  -0.03496   0.00597
  49        7PZ        -0.18890   0.01109  -0.09521  -0.03698  -0.04456
  50        8PX        -0.08900  -0.02858   0.00212  -0.01210   0.01471
  51        8PY         0.15410  -0.01505  -0.01120  -0.01229   0.00210
  52        8PZ        -0.06291   0.00354  -0.03042  -0.01300  -0.01567
[...]
   2   1    -0.19   0.33  -0.19    -0.40   0.22  -0.07     0.20  -0.63   0.11
   3   1    -0.25   0.33  -0.12     0.25  -0.65   0.32    -0.07  -0.16  -0.22
   4   1    -0.16   0.38  -0.12    -0.35   0.26   0.05    -0.31   0.48  -0.38
   5  17     0.12  -0.20   0.08    -0.02  -0.01   0.01    -0.01  -0.01  -0.02
                     4                      5                      6
                    ?A                     ?A                     ?A
 Frequencies --  1388.3089              1478.5271              1478.7224
 Red. masses --     1.1280                 1.0550                 1.0551
 Frc consts  --     1.2809                 1.3588                 1.3593
 IR Inten    --    16.3430                 6.2738                 6.2777
 Raman Activ --     0.0000                 0.0000                 0.0000
 Depolar     --     0.0000                 0.0000                 0.0000
 Atom AN      X      Y      Z        X      Y      Z        X      Y      Z
   1   6     0.05  -0.08   0.03    -0.04  -0.04  -0.04    -0.04   0.00   0.05
   2   1    -0.29   0.50   0.00     0.62   0.12  -0.02     0.23   0.46   0.02
   3   1    -0.10   0.50  -0.27     0.21   0.21   0.62    -0.06  -0.43  -0.09
   4   1    -0.38   0.33  -0.27    -0.29   0.18  -0.12     0.40   0.02  -0.61
   5  17     0.01  -0.01   0.00     0.00   0.00   0.00     0.00   0.00   0.00
                     7                      8                      9
                    ?A                     ?A                     ?A
 Frequencies --  3071.6970              3169.2572              3169.5855
 Red. masses --     1.0263                 1.1092                 1.1092
 Frc consts  --     5.7054                 6.5641                 6.5654
 IR Inten    --    25.3385                 6.4639                 6.4655
 Raman Activ --     0.0000                 0.0000                 0.0000
 Depolar     --     0.0000                 0.0000                 0.0000
 Atom AN      X      Y      Z        X      Y      Z        X      Y      Z
   1   6    -0.02   0.03  -0.01    -0.07  -0.02   0.06     0.04   0.05   0.07
   2   1    -0.01   0.03   0.58     0.00  -0.03  -0.54     0.02  -0.01  -0.60
   3   1     0.54   0.03  -0.21     0.74   0.03  -0.28    -0.15   0.00   0.07
   4   1    -0.29  -0.45  -0.21     0.12   0.20   0.10    -0.39  -0.61  -0.27
   5  17     0.00   0.00   0.00     0.00   0.00   0.00     0.00   0.00   0.00

 -------------------
 - Thermochemistry -
 -------------------
 Temperature   298.150 Kelvin.  Pressure   1.00000 Atm.
 Atom  1 has atomic number  6 and mass  12.00000
 Atom  2 has atomic number  1 and mass   1.00783
 Atom  3 has atomic number  1 and mass   1.00783
 Atom  4 has atomic number  1 and mass   1.00783
 Atom  5 has atomic number 17 and mass  34.96885
 Molecular mass:    49.99233 amu.
 Principal axes and moments of inertia in atomic units:
                           1         2         3
     EIGENVALUES --    11.50420 138.63040 138.63134
           X           -0.47141  -0.56092   0.68054
           Y            0.81650   0.01405   0.57717
           Z           -0.33331   0.82775   0.45137
 THIS MOLECULE IS AN ASYMMETRIC TOP.
 ROTATIONAL SYMMETRY NUMBER  1.
 ROTATIONAL TEMPERATURES (KELVIN)      7.52885     0.62478     0.62478
 ROTATIONAL CONSTANTS (GHZ)          156.87671    13.01837    13.01828
 Zero-point vibrational energy      98846.4 (Joules/Mol)
                                   23.62485 (Kcal/Mol)
 VIBRATIONAL TEMPERATURES:   1021.03  1481.85  1482.12  1997.46  2127.26
          (KELVIN)           2127.54  4419.46  4559.83  4560.30
 
 Zero-point correction=                           0.037649 (Hartree/Particle)
 Thermal correction to Energy=                    0.040674
 Thermal correction to Enthalpy=                  0.041618
 Thermal correction to Gibbs Free Energy=         0.013972
 Sum of electronic and zero-point Energies=           -500.114086
 Sum of electronic and thermal Energies=              -500.111060
 Sum of electronic and thermal Enthalpies=            -500.110116
 Sum of electronic and thermal Free Energies=         -500.137763
 
                     E (Thermal)             CV                S
                      KCAL/MOL        CAL/MOL-KELVIN    CAL/MOL-KELVIN
 TOTAL                   25.523              7.735             58.188
 ELECTRONIC               0.000              0.000              0.000
 TRANSLATIONAL            0.889              2.981             37.652
 ROTATIONAL               0.889              2.981             20.031
 VIBRATIONAL             23.746              1.774              0.505
                       Q            LOG10(Q)             LN(Q)
 TOTAL BOT       0.374602D-06         -6.426430        -14.797403
 TOTAL V=0       0.777332D+11         10.890607         25.076549
 VIB (BOT)       0.506543D-17        -17.295383        -39.824092
 VIB (V=0)       0.105112D+01          0.021654          0.049859
 ELECTRONIC      0.100000D+01          0.000000          0.000000
 TRANSLATIONAL   0.138936D+08          7.142815         16.446940
 ROTATIONAL      0.532277D+04          3.726138          8.579749
 
                                                        frequenties alles los
                                                             IR Spectrum
 
      3  3                                                               1   1             1                                         
      1  0                                                               4   3             0            7                            
      6  7                                                               7   8             3            1                            
      9  2                                                               9   8             0            0                            
 
      X  X                                                               X   X             X            X                            
      X  X                                                               X   X             X            X                            
      X  X                                                               X   X             X            X                            
      X  X                                                               X   X             X            X                            
      X  X                                                               X   X             X            X                            
      X  X                                                               X   X                          X                            
      X  X                                                               X   X                          X                            
      X  X                                                               X   X                          X                            
      X  X                                                                   X                          X                            
         X                                                                   X                          X                            
         X                                                                   X                          X                            
         X                                                                                              X                            
         X                                                                                              X                            
         X                                                                                              X                            
         X                                                                                              X                            
         X                                                                                              X                            
         X                                                                                              X                            
                                                                                                        X                            
                                                                                                        X                            
                                                                                                        X                            
 
 -------------------------------------------------------------------
 Center     Atomic                   Forces (Hartrees/Bohr)
 Number     Number              X              Y              Z
 -------------------------------------------------------------------
    1          6          -0.000005197    0.000008409   -0.000005334
    2          1          -0.000003008    0.000010951   -0.000021777
    3          1          -0.000024569    0.000017680   -0.000006766
    4          1          -0.000003306    0.000029222   -0.000003224
    5         17           0.000036080   -0.000066261    0.000037102
 -------------------------------------------------------------------
 Cartesian Forces:  Max     0.000066261 RMS     0.000025345
 Force constants in Cartesian coordinates: 
             1             2             3             4             5
   1  0.514131D+00
   2  0.932073D-01  0.406560D+00
   3 -0.380262D-01  0.658428D-01  0.541105D+00
   4 -0.482237D-01 -0.441654D-02  0.711388D-02  0.474007D-01
   5 -0.441135D-02 -0.431220D-01 -0.123158D-01 -0.280402D-02  0.506053D-01
   6  0.741238D-02 -0.128397D-01 -0.328936D+00 -0.617693D-02  0.107074D-01
   7 -0.293155D+00 -0.135483D-01  0.940225D-01  0.249799D-02 -0.111974D-02
   8 -0.130626D-01 -0.430981D-01 -0.468332D-04  0.850957D-03  0.115653D-02
   9  0.937272D-01  0.119520D-03 -0.839921D-01  0.300530D-01  0.130126D-02
  10 -0.117206D+00 -0.114679D+00 -0.469577D-01  0.134487D-02  0.151393D-02
  11 -0.115202D+00 -0.219177D+00 -0.814743D-01 -0.462404D-03  0.227360D-02
  12 -0.469500D-01 -0.811052D-01 -0.840137D-01 -0.161457D-01 -0.253818D-01
  13 -0.555458D-01  0.394365D-01 -0.161524D-01 -0.301987D-02  0.682119D-02
  14  0.394690D-01 -0.101163D+00  0.279942D-01  0.683201D-02 -0.109134D-01
  15 -0.161634D-01  0.279826D-01 -0.441630D-01 -0.148442D-01  0.256889D-01
             6             7             8             9            10
   6  0.347493D+00
   7 -0.355794D-03  0.310177D+00
   8 -0.150052D-02  0.911263D-02  0.505606D-01
   9 -0.799768D-02 -0.991132D-01 -0.620902D-02  0.846247D-01
  10  0.146241D-02 -0.115794D-01 -0.234271D-01 -0.115737D-01  0.123539D+00
  11 -0.437906D-03 -0.563811D-03  0.227943D-02 -0.294420D-03  0.117019D+00
  12 -0.799997D-02  0.603433D-02  0.988128D-02  0.492962D-02  0.549092D-01
  13 -0.234208D-02 -0.794023D-02  0.265261D-01 -0.130933D-01  0.390187D-02
  14  0.407063D-02  0.611922D-02 -0.108984D-01  0.508266D-02  0.195729D-01
  15 -0.255978D-02 -0.587847D-03 -0.212490D-02  0.243544D-02  0.215990D-02
            11            12            13            14            15
  11  0.237461D+00
  12  0.827566D-01  0.846860D-01
  13 -0.790777D-03  0.215217D-02  0.626040D-01
  14 -0.228366D-01  0.138492D-01 -0.719931D-01  0.145811D+00
  15 -0.549977D-03  0.239806D-02  0.294356D-01 -0.509967D-01  0.418892D-01
 Force constants in internal coordinates: 
             1             2             3             4             5
   1  0.347878D+00
   2  0.243955D-02  0.347804D+00
   3  0.244252D-02  0.243906D-02  0.347937D+00
   4  0.477789D-02  0.476065D-02  0.478213D-02  0.208204D+00
   5  0.985140D-02  0.987286D-02 -0.795685D-02 -0.246158D-01  0.106714D+00
   6  0.988151D-02 -0.793990D-02  0.988573D-02 -0.245938D-01 -0.183881D-01
   7 -0.328825D-02 -0.450597D-02 -0.451269D-02  0.258695D-01 -0.230224D-01
   8 -0.796018D-02  0.984604D-02  0.987499D-02 -0.246331D-01 -0.183867D-01
   9 -0.452273D-02 -0.334002D-02 -0.453364D-02  0.257246D-01 -0.230197D-01
  10 -0.451928D-02 -0.449172D-02 -0.331679D-02  0.257480D-01 -0.272119D-01
             6             7             8             9            10
   6  0.106740D+00
   7 -0.230245D-01  0.134521D+00
   8 -0.184021D-01 -0.272128D-01  0.106723D+00
   9 -0.272208D-01 -0.288917D-01 -0.230265D-01  0.134532D+00
  10 -0.230160D-01 -0.289021D-01 -0.230120D-01 -0.289073D-01  0.134530D+00
 Leave Link  716 at Fri Nov 25 15:37:13 2005, MaxMem=    6291456 cpu:       0.0
 (Enter /home1/soft/g98_2/g98/l103.exe)

 GradGradGradGradGradGradGradGradGradGradGradGradGradGradGradGradGradGrad
 Berny optimization.
 Internal  Forces:  Max     0.000083478 RMS     0.000032480
 Search for a local minimum.
 Step number   1 out of a maximum of  20
 All quantities printed in internal units (Hartrees-Bohrs-Radians)
 Second derivative matrix not updated -- analytic derivatives used.
 The second derivative matrix:
                          R1        R2        R3        R4        A1
           R1           0.34788
           R2           0.00244   0.34780
           R3           0.00244   0.00244   0.34794
           R4           0.00478   0.00476   0.00478   0.20820
           A1           0.00985   0.00987  -0.00796  -0.02462   0.10671
           A2           0.00988  -0.00794   0.00989  -0.02459  -0.01839
           A3          -0.00329  -0.00451  -0.00451   0.02587  -0.02302
           A4          -0.00796   0.00985   0.00987  -0.02463  -0.01839
           A5          -0.00452  -0.00334  -0.00453   0.02572  -0.02302
           A6          -0.00452  -0.00449  -0.00332   0.02575  -0.02721
                          A2        A3        A4        A5        A6
           A2           0.10674
           A3          -0.02302   0.13452
           A4          -0.01840  -0.02721   0.10672
           A5          -0.02722  -0.02889  -0.02303   0.13453
           A6          -0.02302  -0.02890  -0.02301  -0.02891   0.13453
     Eigenvalues ---    0.10701   0.12325   0.12329   0.16382   0.16384
     Eigenvalues ---    0.24638   0.34684   0.34691   0.354241000.00000
 Angle between quadratic step and forces=   5.76 degrees.
 Linear search not attempted -- first point.
 Iteration  1 RMS(Cart)=  0.00014203 RMS(Int)=  0.00000000
 Iteration  2 RMS(Cart)=  0.00000000 RMS(Int)=  0.00000000
 Variable       Old X    -DE/DX   Delta X   Delta X   Delta X     New X
                                 (Linear)    (Quad)   (Total)
    R1        2.05429  -0.00002   0.00000  -0.00006  -0.00006   2.05424
    R2        2.05432  -0.00002   0.00000  -0.00006  -0.00006   2.05426
    R3        2.05429  -0.00002   0.00000  -0.00006  -0.00006   2.05423
    R4        3.41281  -0.00008   0.00000  -0.00034  -0.00034   3.41248
    A1        1.93107   0.00002   0.00000   0.00007   0.00007   1.93114
    A2        1.93092   0.00002   0.00000   0.00008   0.00008   1.93099
    A3        1.88978  -0.00002   0.00000  -0.00008  -0.00008   1.88970
    A4        1.93089   0.00002   0.00000   0.00008   0.00008   1.93097
    A5        1.88986  -0.00002   0.00000  -0.00008  -0.00008   1.88978
    A6        1.88989  -0.00002   0.00000  -0.00008  -0.00008   1.88981
         Item               Value     Threshold  Converged?
 Maximum Force            0.000083     0.000450     YES
 RMS     Force            0.000032     0.000300     YES
 Maximum Displacement     0.000309     0.001800     YES
 RMS     Displacement     0.000142     0.001200     YES
 Predicted change in Energy=-2.066859D-08
 Optimization completed.
    -- Stationary point found.
                         ----------------------------
                         !   Optimized Parameters   !
                         ! (Angstroms and Degrees)  !
 ------------------------                            -------------------------
 ! Name  Definition              Value          Derivative Info.             !
 -----------------------------------------------------------------------------
 ! R1    R(1,2)                  1.0871         -DE/DX =    0.               !
 ! R2    R(1,3)                  1.0871         -DE/DX =    0.               !
 ! R3    R(1,4)                  1.0871         -DE/DX =    0.               !
 ! R4    R(1,5)                  1.806          -DE/DX =   -0.0001           !
 ! A1    A(2,1,3)              110.642          -DE/DX =    0.               !
 ! A2    A(2,1,4)              110.6333         -DE/DX =    0.               !
 ! A3    A(2,1,5)              108.2763         -DE/DX =    0.               !
 ! A4    A(3,1,4)              110.6318         -DE/DX =    0.               !
 ! A5    A(3,1,5)              108.2811         -DE/DX =    0.               !
 ! A6    A(4,1,5)              108.2827         -DE/DX =    0.               !
 -----------------------------------------------------------------------------
 GradGradGradGradGradGradGradGradGradGradGradGradGradGradGradGradGradGrad

 Leave Link  103 at Fri Nov 25 15:37:14 2005, MaxMem=    6291456 cpu:       0.1
 (Enter /home1/soft/g98_2/g98/l9999.exe)

 Test job not archived.
 1\1\GINC-MOLDYNA9\Freq\RB3LYP\6-311+G(d,p)\C1H3Cl1\STUDENT\25-Nov-2005
 \0\\#P GEOM=ALLCHECK GUESS=TCHECK TEST RB3LYP/6-311+G(D,P) FREQ\\frequ
 enties alles los\\0,1\C,0.011518658,-0.0199241196,0.0081385635\H,0.000
 146059,-0.0003390708,1.0949886941\H,1.0324414217,-0.0003867916,-0.3648
 465022\H,-0.515865023,-0.8943095881,-0.3647791347\Cl,-0.8398399281,1.4
 546645449,-0.5938206931\\Version=x86-Linux-G98RevA.7\HF=-500.1517345\R
 MSD=6.950e-10\RMSF=2.534e-05\Dipole=0.3906745,-0.6766379,0.2762369\Dip
 oleDeriv=0.2492255,-0.2296726,0.0935616,-0.2295045,0.5145165,-0.162429
 8,0.0933573,-0.1618045,0.1827161,0.0630618,0.0526578,-0.0213482,0.0526
 508,0.002201,0.0370553,-0.027368,0.047342,-0.0830988,-0.0824332,0.0627
 654,0.0238681,0.0525152,0.002294,0.0373466,0.0301214,0.0337011,0.06216
 73,0.0309301,-0.0130298,-0.0441891,-0.0028908,-0.1112767,-0.0019298,-0
 .0442346,-0.0091986,0.0622256,-0.2607831,0.1272807,-0.0518939,0.127229
 4,-0.407734,0.0899587,-0.0518763,0.0899609,-0.2240082\Polar=22.6532053
 ,-4.2277146,27.5629343,1.722527,-2.9912258,21.4429183\PG=C01 [X(C1H3Cl
 1)]\NImag=0\\0.51413132,0.09320732,0.40656006,-0.03802616,0.06584279,0
 .54110457,-0.04822374,-0.00441654,0.00711388,0.04740075,-0.00441135,-0
 .04312201,-0.01231578,-0.00280402,0.05060526,0.00741238,-0.01283967,-0
 .32893571,-0.00617693,0.01070742,0.34749309,-0.29315546,-0.01354832,0.
 09402245,0.00249799,-0.00111974,-0.00035579,0.31017706,-0.01306256,-0.
 04309813,-0.00004683,0.00085096,0.00115653,-0.00150052,0.00911263,0.05
 056058,0.09372720,0.00011952,-0.08399210,0.03005302,0.00130126,-0.0079
 9768,-0.09911315,-0.00620902,0.08462472,-0.11720623,-0.11467901,-0.046
 95774,0.00134487,0.00151393,0.00146241,-0.01157938,-0.02342714,-0.0115
 7375,0.12353888,-0.11520236,-0.21917739,-0.08147431,-0.00046240,0.0022
 7360,-0.00043791,-0.00056381,0.00227943,-0.00029442,0.11701937,0.23746
 094,-0.04694997,-0.08110524,-0.08401366,-0.01614572,-0.02538185,-0.007
 99997,0.00603433,0.00988128,0.00492962,0.05490919,0.08275662,0.0846859
 6,-0.05554582,0.03943650,-0.01615239,-0.00301987,0.00682119,-0.0023420
 8,-0.00794023,0.02652612,-0.01309331,0.00390187,-0.00079078,0.00215217
 ,0.06260399,0.03946900,-0.10116259,0.02799420,0.00683201,-0.01091338,0
 .00407063,0.00611922,-0.01089839,0.00508266,0.01957287,-0.02283656,0.0
 1384919,-0.07199308,0.14581094,-0.01616342,0.02798257,-0.04416297,-0.0
 1484424,0.02568893,-0.00255978,-0.00058785,-0.00212490,0.00243544,0.00
 215990,-0.00054998,0.00239806,0.02943560,-0.05099665,0.04188916\\0.000
 00520,-0.00000841,0.00000533,0.00000301,-0.00001095,0.00002178,0.00002
 457,-0.00001768,0.00000677,0.00000331,-0.00002922,0.00000322,-0.000036
 08,0.00006626,-0.00003710\\\@


 THERE ARE TWO THINGS THAT EVERYBODY THINKS THEY CAN DO BETTER THAN
 ANYONE ELSE - PUNCH THE FIRE, AND EDIT A DAILY PAPER.
 -- UNCLE ESEK, "CENTURY MAGAZINE", 1885
 Job cpu time:  0 days  0 hours 12 minutes 54.8 seconds.
 File lengths (MBytes):  RWF=   10 Int=    0 D2E=    0 Chk=    6 Scr=    1
 Normal termination of Gaussian 98.
