      57
 i =     1000, E =      -458.3743692353
 Si        -8.6218391623        2.7776307914        0.5368244395
 Si        -4.2114749382        6.3294367436       -0.6136735188
 Si        -6.1171027117        1.0798493675        0.2583790463
 Si        -4.0437566090        3.3849591650       -0.0163420592
 Si        -6.4650462098        7.8601692223        0.6771459813
 Si        -8.7749591797        5.8010754961        0.0345470788
  O        -6.4998964098        7.8385587965        2.3204591913
  O        -4.8468493942        6.1876852897       -2.1199024603
  O        -3.9325540750        3.1683160890       -1.6421920340
  O        -5.1687268542        2.3755636483        0.6179298144
  O        -7.3611204520        6.6164574588        0.0966576731
  O        -9.5316186620        5.9477323781        1.4886239207
  O        -7.0233483054        9.2743484959        0.0597124054
  O        -9.7359984390        6.4230625476       -1.1432349265
  O        -6.1802783385        0.0918646000        1.5694679677
  O        -4.4771176482        4.9511195687        0.2534091973
  O        -8.1823984077        2.9772380718        2.1116760435
  O       -10.1833717828        2.2836464965        0.4327167405
  O        -8.4506980668        4.2096951363       -0.2591020363
  O        -7.6172972002        1.6478064588       -0.1208655650
  O        -4.9201939571        7.5986576093        0.1627306528
  O        -5.4823234732        0.2661112904       -1.0204654771
  H        -8.8541954483        2.7494365646        2.7606338004
  H        -8.9650785347        6.0625367382        2.2582069161
  H        -5.6646115388        7.6472042654        2.7570407140
  H        -5.8968170823        0.4929918432        2.3968764480
  H        -4.8201930498        5.3071243466       -2.5070985299
  H        -3.9831845160        2.2665800618       -1.9744267509
  H        -6.9318331823        9.3740749557       -0.8926151865
  H       -10.5588755623        6.8115541013       -0.8332342742
  H       -10.4831481359        2.0420618217       -0.4488316283
  H        -5.3693892393       -0.6787950102       -0.8810850377
 Si         0.7765874356        5.8513177835        0.6855135987
 Si        -1.6201018629        1.7679770021        0.9446091876
 Si         1.1312430330        2.9035390455        0.0440927711
 Si        -1.5704257316        7.6772022492        0.0211842636
  O        -2.0058188840        7.8708439954        1.5984458840
  O         2.3553683316        6.2611259908        0.8646975235
  O         2.0891278253        2.4209368525       -1.1974663340
  O        -0.2047484684        1.9492669138        0.1317560239
  O        -2.5845725566        6.5755432342       -0.6768771734
  O         1.9140835799        2.8216727645        1.4876279405
  O        -1.7121637050        9.1147281418       -0.7600327059
  O        -1.3519570018        1.6578613815        2.5625102920
  O         0.6615482170        4.4674627326       -0.2068258122
  O        -2.5854941543        3.0770456487        0.6790051928
  O         0.0605520955        5.5789009821        2.1452148576
  O        -0.0350898890        7.0821037552       -0.0507897071
  O        -2.3747373274        0.4219212986        0.3760916119
  H        -1.7890360002        7.1442857117        2.1924947089
  H         0.6400752913        5.2309443522        2.8297574328
  H         1.8349541352        1.9994188582        1.9794223118
  H        -2.0041539026        2.1031054444        3.1121911129
  H         2.7445931477        6.7558483760        0.1374082297
  H         1.8263123847        2.7387604734       -2.0660242883
  H        -2.4011667505        9.6994190072       -0.4306405731
  H        -1.8517456763       -0.1241744048       -0.2187678958
