      60
 i =      927, E =      -509.1222769131
 Si         3.4763509642        8.3340310113        3.5827256822
 Si         2.2923628647        3.9374064996        1.8765865116
 Si         4.7813131427        5.7681368594        2.4597203381
  O         2.9898059317        2.4563309143        1.7532494681
  O         4.6442737742        7.2399145676        3.1895101084
  O         3.3657170145        4.9513715274        2.5914698750
  O         5.9733834587        4.8971936565        3.1768068371
  O         3.5771834814        8.7322764086        5.1745636208
  O         0.9080047798        3.9042705159        2.7700391387
  O         3.6418873751        9.6893230200        2.6592139184
  O         2.0190849907        7.6424645242        3.3121821996
  H         3.1126740321        8.1517743441        5.7843753181
  H         4.4204539501       10.2228279224        2.8433486999
  H         3.3819859373        2.2354148642        0.9036764117
  H         5.7386378931        4.4700062863        4.0053025536
 Si        -1.7849554629        4.6517105913       -0.0253427042
 Si        -1.5820229333        7.6968927354       -0.6600538134
 Si        -0.5275212821        9.7727803145        1.4505535302
 Si        -0.5236483245        4.7204128022        2.7981482961
 Si         0.3952722232        7.6074183779        3.4707133222
  O        -2.1212660622        6.2601149130       -0.0823656799
  O        -1.2837797320        4.4522015895        4.2282353511
  O        -0.2206721850        9.0085983400        2.8730860423
  O        -2.5984352114        8.2767512055       -1.8174027600
  O        -0.2028279988        6.3274271520        2.6291138747
  O         0.0094542097        7.4802136292        5.0628916712
  O        -3.0753579592        3.8214082551       -0.6130764348
  O        -1.2878809599       11.2006279000        1.7414421284
  O        -1.4467758812        4.2294652857        1.5285097695
  O         0.8901424294       10.0707021786        0.6619647728
  O        -1.4901320677        8.7967458735        0.5508221998
  H        -1.9838981884       11.1819690725        2.4038579872
  H         1.4909942658       10.6520829009        1.1414329739
  H        -0.7331992593        4.0883511711        4.9275188521
  H        -3.1866859240        8.9821314808       -1.5311751005
  H        -0.7248984360        8.0259419437        5.3581498588
  H        -3.6563291321        4.3172894248       -1.1966439684
 Si         0.6850327376        8.0692013885       -2.6778747315
  O        -0.0921677797        7.4985388377       -1.3371332582
  O         0.8236350417        9.7005575195       -2.5191244165
  O        -0.4603693070        4.3489835167       -0.9420302524
  O         2.1725851456        7.3833190431       -2.8164619428
  H         1.0300945867       10.0233302490       -1.6347712643
 Si         4.3893413122        6.9198303150       -0.3299120010
 Si         1.1388074604        4.0002967869       -1.0197560522
 Si         2.9016870736        5.9096375596       -2.7712176385
  O         1.3432758349        2.3804095458       -1.2078622387
  O         4.1177752846        5.9830722103       -1.6594794470
  O         1.8043254320        4.7879343400       -2.2966873164
  O         3.4841768160        5.5594746752       -4.2660608107
  O         5.3427540925        8.2008051862       -0.7157074199
  O         1.8737502480        4.4728487088        0.3765225402
  O         2.9537849850        7.4912282127        0.2301496472
  O         5.0893026871        6.0176470623        0.8591699057
  H         6.2683315079        8.0044889041       -0.8824823762
  H         2.8575120004        8.4483764867        0.2247488927
  H         1.0586622152        2.0221220826       -2.0533325630
  H         3.2966481657        6.2162227154       -4.9429066839
  O        -0.1881563060        7.6747454017       -4.0136797745
  H        -1.1055039533        7.9618641935       -4.0229696487
